
     Program PWSCF v.5.1.1 starts on  2Mar2017 at  9:28:39 

     This program is part of the open-source Quantum ESPRESSO suite
     for quantum simulation of materials; please cite
         "P. Giannozzi et al., J. Phys.:Condens. Matter 21 395502 (2009);
          URL http://www.quantum-espresso.org", 
     in publications or presentations arising from this work. More details at
     http://www.quantum-espresso.org/quote

     Parallel version (MPI), running on     4 processors
     R & G space division:  proc/nbgrp/npool/nimage =       4
     Waiting for input...
     Reading input from standard input

     Current dimensions of program PWSCF are:
     Max number of different atomic species (ntypx) = 10
     Max number of k-points (npk) =  40000
     Max angular momentum in pseudopotentials (lmaxx) =  3
               file Mg.pbe-nsp-bpaw.UPF: wavefunction(s)  Xn Xn Xn Xn Xn Xn renormalized

     Subspace diagonalization in iterative solution of the eigenvalue problem:
     a serial algorithm will be used

     Found symmetry operation: I + (  0.0000 -0.5000 -0.5000)
     This is a supercell, fractional translations are disabled
 
     Parallelization info
     --------------------
     sticks:   dense  smooth     PW     G-vecs:    dense   smooth      PW
     Min         365     365    105                10581    10581    1612
     Max         366     366    106                10586    10586    1613
     Sum        1461    1461    421                42331    42331    6451
 


     bravais-lattice index     =            0
     lattice parameter (alat)  =       8.1131  a.u.
     unit-cell volume          =     533.7127 (a.u.)^3
     number of atoms/cell      =            8
     number of atomic types    =            2
     number of electrons       =        64.00
     number of Kohn-Sham states=           32
     kinetic-energy cutoff     =      70.0000  Ry
     charge density cutoff     =     280.0000  Ry
     convergence threshold     =      1.0E-09
     mixing beta               =       0.7000
     number of iterations used =            8  plain     mixing
     Exchange-correlation      =  SLA  PW   PBX  PBC ( 1  4  3  4 0 0)
     nstep                     =           50


     celldm(1)=   8.113147  celldm(2)=   0.000000  celldm(3)=   0.000000
     celldm(4)=   0.000000  celldm(5)=   0.000000  celldm(6)=   0.000000

     crystal axes: (cart. coord. in units of alat)
               a(1) = (   0.999800  -0.019996   0.000000 )  
               a(2) = (   0.000000   0.999800   0.000000 )  
               a(3) = (   0.000000   0.000000   0.999800 )  

     reciprocal axes: (cart. coord. in units 2 pi/alat)
               b(1) = (  1.000200  0.000000  0.000000 )  
               b(2) = (  0.020004  1.000200  0.000000 )  
               b(3) = (  0.000000  0.000000  1.000200 )  


     PseudoPot. # 1 for Mg read from file:
     ../pseudo/Mg.pbe-nsp-bpaw.UPF
     MD5 check sum: f47e0adbead6454d4e42896e4aa7b341
     Pseudo is Projector augmented-wave + core cor, Zval = 10.0
     Generated using ATOMPAW code
     Shape of augmentation charge: BESSEL
     Using radial grid of 1171 points,  6 beta functions with: 
                l(1) =   0
                l(2) =   0
                l(3) =   0
                l(4) =   0
                l(5) =   1
                l(6) =   1
     Q(r) pseudized with 0 coefficients 


     PseudoPot. # 2 for  O read from file:
     ../pseudo/O.pbe-kjpaw.UPF
     MD5 check sum: 90f4868982d1b5f8aada8373f3a0510a
     Pseudo is Projector augmented-wave + core cor, Zval =  6.0
     Generated using "atomic" code by A. Dal Corso (espresso distribution)
     Shape of augmentation charge: BESSEL
     Using radial grid of 1095 points,  4 beta functions with: 
                l(1) =   0
                l(2) =   0
                l(3) =   1
                l(4) =   1
     Q(r) pseudized with 0 coefficients 


     atomic species   valence    mass     pseudopotential
        Mg            10.00    24.30500     Mg( 1.00)
        O              6.00    15.99940      O( 1.00)

      4 Sym. Ops., with inversion, found



   Cartesian axes

     site n.     atom                  positions (alat units)
         1           Mg  tau(   1) = (   0.0000000   0.0000000   0.0000000  )
         2           Mg  tau(   2) = (   0.0000000   0.4999000   0.4999000  )
         3           Mg  tau(   3) = (   0.4999000  -0.0099980   0.4999000  )
         4           Mg  tau(   4) = (   0.4999000   0.4899020   0.0000000  )
         5           O   tau(   5) = (   0.4999000   0.4899020   0.4999000  )
         6           O   tau(   6) = (   0.4999000  -0.0099980   0.0000000  )
         7           O   tau(   7) = (   0.0000000   0.4999000   0.0000000  )
         8           O   tau(   8) = (   0.0000000   0.0000000   0.4999000  )

     number of k points=    54
                       cart. coord. in units 2pi/alat
        k(    1) = (   0.0850170   0.0833500   0.0833500), wk =   0.0370370
        k(    2) = (   0.0850170   0.0833500   0.2500500), wk =   0.0370370
        k(    3) = (   0.0850170   0.0833500   0.4167500), wk =   0.0370370
        k(    4) = (   0.0883510   0.2500500   0.0833500), wk =   0.0370370
        k(    5) = (   0.0883510   0.2500500   0.2500500), wk =   0.0370370
        k(    6) = (   0.0883510   0.2500500   0.4167500), wk =   0.0370370
        k(    7) = (   0.0916850   0.4167500   0.0833500), wk =   0.0370370
        k(    8) = (   0.0916850   0.4167500   0.2500500), wk =   0.0370370
        k(    9) = (   0.0916850   0.4167500   0.4167500), wk =   0.0370370
        k(   10) = (   0.0750150  -0.4167500   0.0833500), wk =   0.0370370
        k(   11) = (   0.0750150  -0.4167500   0.2500500), wk =   0.0370370
        k(   12) = (   0.0750150  -0.4167500   0.4167500), wk =   0.0370370
        k(   13) = (   0.0783490  -0.2500500   0.0833500), wk =   0.0370370
        k(   14) = (   0.0783490  -0.2500500   0.2500500), wk =   0.0370370
        k(   15) = (   0.0783490  -0.2500500   0.4167500), wk =   0.0370370
        k(   16) = (   0.0816830  -0.0833500   0.0833500), wk =   0.0370370
        k(   17) = (   0.0816830  -0.0833500   0.2500500), wk =   0.0370370
        k(   18) = (   0.0816830  -0.0833500   0.4167500), wk =   0.0370370
        k(   19) = (   0.2517170   0.0833500   0.0833500), wk =   0.0370370
        k(   20) = (   0.2517170   0.0833500   0.2500500), wk =   0.0370370
        k(   21) = (   0.2517170   0.0833500   0.4167500), wk =   0.0370370
        k(   22) = (   0.2550510   0.2500500   0.0833500), wk =   0.0370370
        k(   23) = (   0.2550510   0.2500500   0.2500500), wk =   0.0370370
        k(   24) = (   0.2550510   0.2500500   0.4167500), wk =   0.0370370
        k(   25) = (   0.2583850   0.4167500   0.0833500), wk =   0.0370370
        k(   26) = (   0.2583850   0.4167500   0.2500500), wk =   0.0370370
        k(   27) = (   0.2583850   0.4167500   0.4167500), wk =   0.0370370
        k(   28) = (   0.2417150  -0.4167500   0.0833500), wk =   0.0370370
        k(   29) = (   0.2417150  -0.4167500   0.2500500), wk =   0.0370370
        k(   30) = (   0.2417150  -0.4167500   0.4167500), wk =   0.0370370
        k(   31) = (   0.2450490  -0.2500500   0.0833500), wk =   0.0370370
        k(   32) = (   0.2450490  -0.2500500   0.2500500), wk =   0.0370370
        k(   33) = (   0.2450490  -0.2500500   0.4167500), wk =   0.0370370
        k(   34) = (   0.2483830  -0.0833500   0.0833500), wk =   0.0370370
        k(   35) = (   0.2483830  -0.0833500   0.2500500), wk =   0.0370370
        k(   36) = (   0.2483830  -0.0833500   0.4167500), wk =   0.0370370
        k(   37) = (   0.4184170   0.0833500   0.0833500), wk =   0.0370370
        k(   38) = (   0.4184170   0.0833500   0.2500500), wk =   0.0370370
        k(   39) = (   0.4184170   0.0833500   0.4167500), wk =   0.0370370
        k(   40) = (   0.4217510   0.2500500   0.0833500), wk =   0.0370370
        k(   41) = (   0.4217510   0.2500500   0.2500500), wk =   0.0370370
        k(   42) = (   0.4217510   0.2500500   0.4167500), wk =   0.0370370
        k(   43) = (   0.4250850   0.4167500   0.0833500), wk =   0.0370370
        k(   44) = (   0.4250850   0.4167500   0.2500500), wk =   0.0370370
        k(   45) = (   0.4250850   0.4167500   0.4167500), wk =   0.0370370
        k(   46) = (   0.4084150  -0.4167500   0.0833500), wk =   0.0370370
        k(   47) = (   0.4084150  -0.4167500   0.2500500), wk =   0.0370370
        k(   48) = (   0.4084150  -0.4167500   0.4167500), wk =   0.0370370
        k(   49) = (   0.4117490  -0.2500500   0.0833500), wk =   0.0370370
        k(   50) = (   0.4117490  -0.2500500   0.2500500), wk =   0.0370370
        k(   51) = (   0.4117490  -0.2500500   0.4167500), wk =   0.0370370
        k(   52) = (   0.4150830  -0.0833500   0.0833500), wk =   0.0370370
        k(   53) = (   0.4150830  -0.0833500   0.2500500), wk =   0.0370370
        k(   54) = (   0.4150830  -0.0833500   0.4167500), wk =   0.0370370

     Dense  grid:    42331 G-vectors     FFT dimensions: (  45,  45,  45)

     Largest allocated arrays     est. size (Mb)     dimensions
        Kohn-Sham Wavefunctions         0.66 Mb     (    1349,   32)
        NL pseudopotentials             1.48 Mb     (    1349,   72)
        Each V/rho on FFT grid          0.37 Mb     (   24300)
        Each G-vector array             0.08 Mb     (   10583)
        G-vector shells                 0.04 Mb     (    5122)
     Largest temporary arrays     est. size (Mb)     dimensions
        Auxiliary wavefunctions         2.63 Mb     (    1349,  128)
        Each subspace H/S matrix        0.25 Mb     (     128,  128)
        Each <psi_i|beta_j> matrix      0.04 Mb     (      72,   32)
        Arrays for rho mixing           2.97 Mb     (   24300,    8)

     Initial potential from superposition of free atoms

     starting charge   63.99670, renormalised to   64.00000
     Starting wfc are   56 randomized atomic wfcs
     Checking if some PAW data can be deallocated... 

     total cpu time spent up to now is        9.6 secs

     Self-consistent Calculation

     iteration #  1     ecut=    70.00 Ry     beta=0.70
     Davidson diagonalization with overlap
     ethr =  1.00E-02,  avg # of iterations =  1.2

     total cpu time spent up to now is       20.8 secs

     total energy              =    -731.49596934 Ry
     Harris-Foulkes estimate   =    -732.94361774 Ry
     estimated scf accuracy    <       1.82092156 Ry

     iteration #  2     ecut=    70.00 Ry     beta=0.70
     Davidson diagonalization with overlap
     ethr =  2.85E-03,  avg # of iterations =  3.0

     total cpu time spent up to now is       37.1 secs

     total energy              =    -732.01851110 Ry
     Harris-Foulkes estimate   =    -733.11834281 Ry
     estimated scf accuracy    <       2.27846596 Ry

     iteration #  3     ecut=    70.00 Ry     beta=0.70
     Davidson diagonalization with overlap
     ethr =  2.85E-03,  avg # of iterations =  2.8

     total cpu time spent up to now is       50.9 secs

     total energy              =    -732.45091169 Ry
     Harris-Foulkes estimate   =    -732.45168995 Ry
     estimated scf accuracy    <       0.00640201 Ry

     iteration #  4     ecut=    70.00 Ry     beta=0.70
     Davidson diagonalization with overlap
     ethr =  1.00E-05,  avg # of iterations =  3.4

     total cpu time spent up to now is       65.5 secs

     total energy              =    -732.45584682 Ry
     Harris-Foulkes estimate   =    -732.45624704 Ry
     estimated scf accuracy    <       0.00110398 Ry

     iteration #  5     ecut=    70.00 Ry     beta=0.70
     Davidson diagonalization with overlap
     ethr =  1.72E-06,  avg # of iterations =  2.0

     total cpu time spent up to now is       79.3 secs

     total energy              =    -732.45592237 Ry
     Harris-Foulkes estimate   =    -732.45600011 Ry
     estimated scf accuracy    <       0.00024904 Ry

     iteration #  6     ecut=    70.00 Ry     beta=0.70
     Davidson diagonalization with overlap
     ethr =  3.89E-07,  avg # of iterations =  2.0

     total cpu time spent up to now is       93.3 secs

     total energy              =    -732.45594575 Ry
     Harris-Foulkes estimate   =    -732.45595415 Ry
     estimated scf accuracy    <       0.00002682 Ry

     iteration #  7     ecut=    70.00 Ry     beta=0.70
     Davidson diagonalization with overlap
     ethr =  4.19E-08,  avg # of iterations =  3.0

     total cpu time spent up to now is      109.0 secs

     total energy              =    -732.45595373 Ry
     Harris-Foulkes estimate   =    -732.45595498 Ry
     estimated scf accuracy    <       0.00000406 Ry

     iteration #  8     ecut=    70.00 Ry     beta=0.70
     Davidson diagonalization with overlap
     ethr =  6.35E-09,  avg # of iterations =  2.0

     total cpu time spent up to now is      123.4 secs

     total energy              =    -732.45595391 Ry
     Harris-Foulkes estimate   =    -732.45595418 Ry
     estimated scf accuracy    <       0.00000081 Ry

     iteration #  9     ecut=    70.00 Ry     beta=0.70
     Davidson diagonalization with overlap
     ethr =  1.26E-09,  avg # of iterations =  2.1

     total cpu time spent up to now is      137.1 secs

     total energy              =    -732.45595398 Ry
     Harris-Foulkes estimate   =    -732.45595401 Ry
     estimated scf accuracy    <       0.00000006 Ry

     iteration # 10     ecut=    70.00 Ry     beta=0.70
     Davidson diagonalization with overlap
     ethr =  8.88E-11,  avg # of iterations =  3.0

     total cpu time spent up to now is      154.8 secs

     total energy              =    -732.45595400 Ry
     Harris-Foulkes estimate   =    -732.45595400 Ry
     estimated scf accuracy    <          2.8E-09 Ry

     iteration # 11     ecut=    70.00 Ry     beta=0.70
     Davidson diagonalization with overlap
     ethr =  4.30E-12,  avg # of iterations =  2.5

     total cpu time spent up to now is      169.9 secs

     End of self-consistent calculation

          k = 0.0850 0.0833 0.0833 (  5291 PWs)   bands (ev):

   -63.2350 -63.2271 -63.2270 -63.2259 -30.3529 -30.3527 -30.3516 -30.3240
   -30.3205 -30.3199 -30.3171 -30.3168 -30.3143 -30.3040 -30.2971 -30.2924
    -7.8391  -6.5451  -6.5443  -6.5428   5.2905   5.2914   5.2920   7.5839
     7.5847   7.6911   7.6927   7.8036   7.8045   8.6055   8.9072   9.0010

          k = 0.0850 0.0833 0.2500 (  5279 PWs)   bands (ev):

   -63.2339 -63.2279 -63.2271 -63.2261 -30.3492 -30.3489 -30.3461 -30.3255
   -30.3253 -30.3202 -30.3164 -30.3158 -30.3114 -30.3110 -30.3007 -30.2953
    -7.6664  -6.7156  -6.5212  -6.5205   5.5133   5.5138   5.5355   7.1066
     7.1071   7.7262   7.7272   7.7916   7.8323   7.8708   8.7182   8.8754

          k = 0.0850 0.0833 0.4167 (  5274 PWs)   bands (ev):

   -63.2320 -63.2297 -63.2271 -63.2262 -30.3433 -30.3428 -30.3358 -30.3319
   -30.3318 -30.3230 -30.3165 -30.3158 -30.3139 -30.3068 -30.3063 -30.3004
    -7.3655  -7.0169  -6.4972  -6.4966   5.9101   5.9105   6.0570   6.5459
     6.5464   6.8467   7.5724   7.5732   8.0903   8.1825   8.4130   8.5525

          k = 0.0884 0.2500 0.0833 (  5279 PWs)   bands (ev):

   -63.2338 -63.2280 -63.2270 -63.2262 -30.3478 -30.3476 -30.3458 -30.3292
   -30.3256 -30.3176 -30.3169 -30.3142 -30.3137 -30.3132 -30.2996 -30.2946
    -7.6640  -6.7201  -6.5242  -6.5163   5.5143   5.5166   5.5359   7.1092
     7.1789   7.6380   7.7258   7.7670   7.7999   7.9429   8.7674   8.8154

          k = 0.0884 0.2500 0.2500 (  5279 PWs)   bands (ev):

   -63.2329 -63.2280 -63.2276 -63.2265 -30.3467 -30.3454 -30.3438 -30.3331
   -30.3234 -30.3226 -30.3216 -30.3123 -30.3116 -30.3104 -30.3019 -30.2956
    -7.5055  -6.6695  -6.6623  -6.5250   5.5685   5.5817   5.6703   6.6190
     7.1369   7.3886   7.4274   7.8561   7.9243   7.9780   8.5509   8.8416

          k = 0.0884 0.2500 0.4167 (  5291 PWs)   bands (ev):

   -63.2313 -63.2293 -63.2277 -63.2267 -30.3437 -30.3417 -30.3398 -30.3370
   -30.3326 -30.3296 -30.3151 -30.3102 -30.3097 -30.3075 -30.3048 -30.2991
    -7.2328  -6.9231  -6.5989  -6.5456   5.6418   5.7530   5.8573   6.4043
     6.5023   6.8953   7.7919   7.9213   7.9920   8.1924   8.2276   8.6101

          k = 0.0917 0.4167 0.0833 (  5266 PWs)   bands (ev):

   -63.2319 -63.2298 -63.2270 -63.2262 -30.3426 -30.3397 -30.3349 -30.3343
   -30.3327 -30.3262 -30.3181 -30.3143 -30.3122 -30.3089 -30.3045 -30.3000
    -7.3612  -7.0228  -6.5020  -6.4904   5.8965   5.9208   6.0486   6.5546
     6.5719   6.8455   7.5219   7.5842   8.0951   8.1955   8.4622   8.5036

          k = 0.0917 0.4167 0.2500 (  5286 PWs)   bands (ev):

   -63.2312 -63.2294 -63.2276 -63.2267 -30.3473 -30.3408 -30.3391 -30.3349
   -30.3339 -30.3271 -30.3163 -30.3109 -30.3096 -30.3065 -30.3052 -30.2991
    -7.2309  -6.9316  -6.5897  -6.5475   5.6721   5.7371   5.8278   6.3971
     6.5186   6.8782   7.8106   7.8899   7.9947   8.1923   8.2575   8.6202

          k = 0.0917 0.4167 0.4167 (  5290 PWs)   bands (ev):

   -63.2301 -63.2289 -63.2286 -63.2274 -30.3475 -30.3443 -30.3436 -30.3424
   -30.3293 -30.3224 -30.3194 -30.3121 -30.3054 -30.3038 -30.3033 -30.2996
    -7.0130  -6.7874  -6.7769  -6.6458   5.5508   5.5948   5.6376   5.9094
     6.8449   7.2822   7.3312   7.7527   8.2705   8.3124   8.3278   8.5802

          k = 0.0750-0.4167 0.0833 (  5280 PWs)   bands (ev):

   -63.2321 -63.2297 -63.2271 -63.2262 -30.3458 -30.3411 -30.3394 -30.3311
   -30.3305 -30.3204 -30.3188 -30.3148 -30.3103 -30.3070 -30.3061 -30.3030
    -7.3714  -7.0117  -6.5021  -6.4899   5.8941   5.9188   6.0503   6.5286
     6.5493   6.8211   7.5508   7.6169   8.0957   8.1851   8.4821   8.5206

          k = 0.0750-0.4167 0.2500 (  5279 PWs)   bands (ev):

   -63.2314 -63.2293 -63.2276 -63.2267 -30.3482 -30.3444 -30.3440 -30.3297
   -30.3293 -30.3269 -30.3119 -30.3117 -30.3098 -30.3095 -30.3060 -30.2993
    -7.2411  -6.9205  -6.6010  -6.5357   5.6217   5.7928   5.8441   6.3581
     6.4611   6.9004   7.7824   7.9436   7.9787   8.2521   8.2566   8.6174

          k = 0.0750-0.4167 0.4167 (  5284 PWs)   bands (ev):

   -63.2302 -63.2289 -63.2285 -63.2273 -30.3502 -30.3488 -30.3441 -30.3386
   -30.3243 -30.3213 -30.3176 -30.3149 -30.3056 -30.3045 -30.3039 -30.2994
    -7.0233  -6.7877  -6.7763  -6.6344   5.5835   5.5978   5.6277   5.8595
     6.7896   7.2873   7.3353   7.8145   8.2600   8.3215   8.3390   8.5915

          k = 0.0783-0.2500 0.0833 (  5268 PWs)   bands (ev):

   -63.2339 -63.2279 -63.2271 -63.2261 -30.3515 -30.3494 -30.3478 -30.3243
   -30.3233 -30.3190 -30.3157 -30.3153 -30.3132 -30.3074 -30.3014 -30.2976
    -7.6709  -6.7113  -6.5246  -6.5151   5.5056   5.5089   5.5286   7.0389
     7.1145   7.7190   7.7382   7.7772   7.8136   7.9358   8.7899   8.8697

          k = 0.0783-0.2500 0.2500 (  5280 PWs)   bands (ev):

   -63.2330 -63.2280 -63.2276 -63.2264 -30.3502 -30.3498 -30.3458 -30.3275
   -30.3202 -30.3180 -30.3166 -30.3141 -30.3134 -30.3123 -30.3045 -30.2959
    -7.5125  -6.6703  -6.6608  -6.5161   5.5522   5.5682   5.6765   6.6109
     7.0779   7.3454   7.3944   7.9113   7.9708   7.9929   8.6195   8.8519

          k = 0.0783-0.2500 0.4167 (  5266 PWs)   bands (ev):

   -63.2314 -63.2294 -63.2276 -63.2266 -30.3501 -30.3495 -30.3399 -30.3300
   -30.3268 -30.3220 -30.3152 -30.3121 -30.3111 -30.3094 -30.3056 -30.2989
    -7.2399  -6.9306  -6.5902  -6.5368   5.6541   5.7770   5.8117   6.3492
     6.4777   6.8851   7.7863   7.9087   7.9817   8.2399   8.3040   8.6412

          k = 0.0817-0.0833 0.0833 (  5273 PWs)   bands (ev):

   -63.2350 -63.2271 -63.2270 -63.2259 -30.3543 -30.3540 -30.3517 -30.3212
   -30.3198 -30.3189 -30.3171 -30.3169 -30.3162 -30.3005 -30.2987 -30.2939
    -7.8416  -6.5459  -6.5416  -6.5409   5.2871   5.2871   5.2877   7.4827
     7.5895   7.5902   7.8011   7.8020   7.9155   8.5149   8.9572   9.0505

          k = 0.0817-0.0833 0.2500 (  5271 PWs)   bands (ev):

   -63.2339 -63.2280 -63.2271 -63.2261 -30.3512 -30.3508 -30.3459 -30.3228
   -30.3221 -30.3185 -30.3177 -30.3170 -30.3131 -30.3083 -30.3032 -30.2952
    -7.6689  -6.7184  -6.5179  -6.5172   5.5098   5.5103   5.5262   7.1159
     7.1164   7.6754   7.7179   7.7189   7.7450   8.0481   8.7746   8.8755

          k = 0.0817-0.0833 0.4167 (  5267 PWs)   bands (ev):

   -63.2320 -63.2298 -63.2271 -63.2261 -30.3473 -30.3468 -30.3353 -30.3265
   -30.3260 -30.3217 -30.3186 -30.3177 -30.3136 -30.3080 -30.3069 -30.3001
    -7.3681  -7.0195  -6.4939  -6.4933   5.9058   5.9063   6.0386   6.5573
     6.5577   6.8171   7.5617   7.5625   8.0122   8.2901   8.4141   8.5917

          k = 0.2517 0.0833 0.0833 (  5278 PWs)   bands (ev):

   -63.2338 -63.2280 -63.2270 -63.2262 -30.3478 -30.3475 -30.3459 -30.3292
   -30.3257 -30.3176 -30.3170 -30.3141 -30.3137 -30.3132 -30.2996 -30.2945
    -7.6641  -6.7205  -6.5238  -6.5163   5.5147   5.5165   5.5356   7.1086
     7.1785   7.6387   7.7256   7.7675   7.8002   7.9435   8.7671   8.8156

          k = 0.2517 0.0833 0.2500 (  5279 PWs)   bands (ev):

   -63.2329 -63.2280 -63.2276 -63.2265 -30.3467 -30.3454 -30.3437 -30.3331
   -30.3234 -30.3225 -30.3216 -30.3123 -30.3115 -30.3104 -30.3018 -30.2956
    -7.5055  -6.6699  -6.6623  -6.5248   5.5685   5.5818   5.6706   6.6191
     7.1373   7.3887   7.4269   7.8568   7.9250   7.9773   8.5506   8.8417

          k = 0.2517 0.0833 0.4167 (  5292 PWs)   bands (ev):

   -63.2313 -63.2293 -63.2277 -63.2267 -30.3438 -30.3417 -30.3398 -30.3369
   -30.3326 -30.3295 -30.3151 -30.3102 -30.3097 -30.3074 -30.3048 -30.2992
    -7.2328  -6.9231  -6.5990  -6.5455   5.6420   5.7531   5.8576   6.4047
     6.5026   6.8955   7.7914   7.9212   7.9914   8.1920   8.2280   8.6102

          k = 0.2551 0.2500 0.0833 (  5280 PWs)   bands (ev):

   -63.2328 -63.2282 -63.2276 -63.2264 -30.3462 -30.3426 -30.3424 -30.3350
   -30.3246 -30.3220 -30.3211 -30.3150 -30.3146 -30.3094 -30.3021 -30.2933
    -7.4991  -6.6778  -6.6771  -6.5098   5.5708   5.5711   5.6921   6.6669
     7.1445   7.3822   7.3832   7.8738   7.9343   7.9347   8.6049   8.7729

          k = 0.2551 0.2500 0.2500 (  5285 PWs)   bands (ev):

   -63.2320 -63.2282 -63.2279 -63.2269 -30.3513 -30.3452 -30.3451 -30.3336
   -30.3248 -30.3243 -30.3229 -30.3100 -30.3096 -30.3072 -30.3011 -30.2955
    -7.3561  -6.6507  -6.6500  -6.6282   5.4244   5.4245   5.4701   6.5299
     7.2511   7.2518   7.2688   7.9821   8.0887   8.0894   8.6389   8.7215

          k = 0.2551 0.2500 0.4167 (  5264 PWs)   bands (ev):

   -63.2306 -63.2290 -63.2282 -63.2271 -30.3505 -30.3479 -30.3478 -30.3438
   -30.3258 -30.3251 -30.3120 -30.3069 -30.3065 -30.3041 -30.3035 -30.2991
    -7.1140  -6.8462  -6.6233  -6.6227   5.2672   5.2673   5.5147   5.8985
     7.2428   7.2435   7.9472   8.1236   8.1241   8.1778   8.4177   8.4922

          k = 0.2584 0.4167 0.0833 (  5279 PWs)   bands (ev):

   -63.2311 -63.2296 -63.2277 -63.2266 -30.3484 -30.3406 -30.3370 -30.3356
   -30.3328 -30.3263 -30.3150 -30.3140 -30.3100 -30.3074 -30.3072 -30.2963
    -7.2217  -6.9415  -6.6113  -6.5259   5.6334   5.7982   5.8301   6.3985
     6.5056   6.8794   7.7785   7.9052   7.9634   8.2409   8.2970   8.5604

          k = 0.2584 0.4167 0.2500 (  5285 PWs)   bands (ev):

   -63.2306 -63.2293 -63.2280 -63.2270 -30.3558 -30.3482 -30.3455 -30.3438
   -30.3219 -30.3214 -30.3137 -30.3096 -30.3058 -30.3053 -30.3043 -30.2978
    -7.1095  -6.8713  -6.6275  -6.5963   5.2590   5.3254   5.4511   5.8852
     7.2144   7.2394   7.9562   8.0448   8.1449   8.2839   8.4250   8.5018

          k = 0.2584 0.4167 0.4167 (  5289 PWs)   bands (ev):

   -63.2297 -63.2290 -63.2287 -63.2275 -30.3582 -30.3541 -30.3524 -30.3507
   -30.3185 -30.3157 -30.3118 -30.3057 -30.3041 -30.3026 -30.3021 -30.2995
    -6.9266  -6.7673  -6.7374  -6.6772   5.0258   5.1037   5.1745   5.3895
     7.6003   7.7982   7.8824   8.1838   8.2993   8.3217   8.3455   8.5282

          k = 0.2417-0.4167 0.0833 (  5287 PWs)   bands (ev):

   -63.2315 -63.2292 -63.2276 -63.2267 -30.3515 -30.3468 -30.3411 -30.3292
   -30.3261 -30.3258 -30.3150 -30.3135 -30.3077 -30.3068 -30.3046 -30.3026
    -7.2503  -6.9108  -6.5789  -6.5579   5.6617   5.7312   5.8415   6.3579
     6.4734   6.9006   7.8119   7.8679   8.0698   8.1997   8.2202   8.6807

          k = 0.2417-0.4167 0.2500 (  5279 PWs)   bands (ev):

   -63.2310 -63.2290 -63.2280 -63.2270 -30.3572 -30.3533 -30.3494 -30.3370
   -30.3195 -30.3186 -30.3114 -30.3092 -30.3064 -30.3062 -30.3040 -30.3008
    -7.1381  -6.8408  -6.6274  -6.5957   5.2465   5.3128   5.4901   5.8206
     7.1944   7.2183   7.9050   8.0861   8.1873   8.2550   8.4863   8.5557

          k = 0.2417-0.4167 0.4167 (  5278 PWs)   bands (ev):

   -63.2301 -63.2290 -63.2285 -63.2274 -30.3608 -30.3592 -30.3517 -30.3470
   -30.3133 -30.3129 -30.3094 -30.3084 -30.3047 -30.3046 -30.3038 -30.2996
    -6.9556  -6.7672  -6.7367  -6.6462   5.0885   5.0906   5.1613   5.3099
     7.5133   7.7843   7.8607   8.2929   8.2951   8.3356   8.3892   8.5597

          k = 0.2450-0.2500 0.0833 (  5277 PWs)   bands (ev):

   -63.2331 -63.2279 -63.2275 -63.2265 -30.3520 -30.3515 -30.3448 -30.3266
   -30.3201 -30.3191 -30.3168 -30.3148 -30.3102 -30.3096 -30.3016 -30.3012
    -7.5188  -6.6539  -6.6532  -6.5328   5.5651   5.5654   5.6536   6.5630
     7.0734   7.3997   7.4007   7.9022   7.9026   8.0764   8.5707   8.9132

          k = 0.2450-0.2500 0.2500 (  5279 PWs)   bands (ev):

   -63.2323 -63.2280 -63.2279 -63.2268 -30.3550 -30.3546 -30.3479 -30.3266
   -30.3175 -30.3171 -30.3162 -30.3148 -30.3102 -30.3097 -30.3036 -30.2974
    -7.3759  -6.6503  -6.6270  -6.6264   5.3964   5.4429   5.4431   6.4453
     7.2085   7.2264   7.2271   8.0687   8.0694   8.1777   8.7024   8.7891

          k = 0.2450-0.2500 0.4167 (  5263 PWs)   bands (ev):

   -63.2309 -63.2293 -63.2279 -63.2269 -30.3576 -30.3573 -30.3462 -30.3384
   -30.3148 -30.3142 -30.3113 -30.3106 -30.3101 -30.3071 -30.3062 -30.2991
    -7.1341  -6.8671  -6.5999  -6.5994   5.3047   5.3048   5.4264   5.8072
     7.1931   7.1937   7.9147   8.1042   8.1047   8.3604   8.4748   8.5837

          k = 0.2484-0.0833 0.0833 (  5268 PWs)   bands (ev):

   -63.2339 -63.2279 -63.2270 -63.2261 -30.3514 -30.3495 -30.3478 -30.3243
   -30.3232 -30.3191 -30.3157 -30.3153 -30.3131 -30.3075 -30.3013 -30.2976
    -7.6710  -6.7118  -6.5246  -6.5147   5.5055   5.5093   5.5283   7.0387
     7.1139   7.7188   7.7385   7.7777   7.8142   7.9365   8.7900   8.8695

          k = 0.2484-0.0833 0.2500 (  5280 PWs)   bands (ev):

   -63.2330 -63.2280 -63.2276 -63.2264 -30.3502 -30.3498 -30.3458 -30.3275
   -30.3201 -30.3180 -30.3165 -30.3142 -30.3135 -30.3123 -30.3045 -30.2959
    -7.5126  -6.6703  -6.6612  -6.5159   5.5523   5.5682   5.6768   6.6110
     7.0783   7.3450   7.3945   7.9119   7.9702   7.9934   8.6193   8.8519

          k = 0.2484-0.0833 0.4167 (  5266 PWs)   bands (ev):

   -63.2314 -63.2294 -63.2276 -63.2266 -30.3501 -30.3495 -30.3399 -30.3300
   -30.3268 -30.3220 -30.3151 -30.3122 -30.3112 -30.3094 -30.3057 -30.2990
    -7.2400  -6.9306  -6.5904  -6.5368   5.6543   5.7772   5.8120   6.3496
     6.4781   6.8853   7.7858   7.9086   7.9812   8.2395   8.3044   8.6414

          k = 0.4184 0.0833 0.0833 (  5269 PWs)   bands (ev):

   -63.2319 -63.2298 -63.2270 -63.2262 -30.3426 -30.3396 -30.3348 -30.3343
   -30.3328 -30.3262 -30.3182 -30.3143 -30.3122 -30.3089 -30.3045 -30.2999
    -7.3615  -7.0232  -6.5018  -6.4903   5.8966   5.9206   6.0487   6.5542
     6.5717   6.8458   7.5228   7.5847   8.0955   8.1959   8.4621   8.5041

          k = 0.4184 0.0833 0.2500 (  5285 PWs)   bands (ev):

   -63.2312 -63.2295 -63.2276 -63.2267 -30.3473 -30.3408 -30.3392 -30.3348
   -30.3339 -30.3271 -30.3163 -30.3109 -30.3097 -30.3064 -30.3052 -30.2991
    -7.2311  -6.9319  -6.5897  -6.5474   5.6723   5.7373   5.8282   6.3977
     6.5188   6.8780   7.8105   7.8903   7.9946   8.1922   8.2578   8.6202

          k = 0.4184 0.0833 0.4167 (  5290 PWs)   bands (ev):

   -63.2301 -63.2290 -63.2286 -63.2274 -30.3475 -30.3444 -30.3436 -30.3425
   -30.3292 -30.3223 -30.3193 -30.3120 -30.3054 -30.3039 -30.3033 -30.2997
    -7.0131  -6.7876  -6.7769  -6.6458   5.5513   5.5954   5.6381   5.9100
     6.8451   7.2820   7.3313   7.7526   8.2700   8.3124   8.3275   8.5800

          k = 0.4218 0.2500 0.0833 (  5279 PWs)   bands (ev):

   -63.2311 -63.2296 -63.2277 -63.2266 -30.3484 -30.3406 -30.3370 -30.3356
   -30.3328 -30.3262 -30.3151 -30.3140 -30.3099 -30.3074 -30.3072 -30.2963
    -7.2219  -6.9417  -6.6111  -6.5258   5.6334   5.7982   5.8303   6.3986
     6.5055   6.8790   7.7790   7.9056   7.9639   8.2412   8.2968   8.5603

          k = 0.4218 0.2500 0.2500 (  5285 PWs)   bands (ev):

   -63.2306 -63.2293 -63.2280 -63.2270 -30.3558 -30.3482 -30.3455 -30.3439
   -30.3219 -30.3214 -30.3137 -30.3097 -30.3058 -30.3053 -30.3043 -30.2978
    -7.1096  -6.8716  -6.6274  -6.5963   5.2590   5.3254   5.4514   5.8854
     7.2143   7.2395   7.9559   8.0450   8.1448   8.2843   8.4248   8.5020

          k = 0.4218 0.2500 0.4167 (  5289 PWs)   bands (ev):

   -63.2297 -63.2290 -63.2287 -63.2275 -30.3582 -30.3541 -30.3524 -30.3507
   -30.3185 -30.3157 -30.3117 -30.3056 -30.3042 -30.3027 -30.3022 -30.2996
    -6.9267  -6.7674  -6.7374  -6.6772   5.0259   5.1040   5.1747   5.3898
     7.6007   7.7983   7.8824   8.1839   8.2992   8.3214   8.3455   8.5280

          k = 0.4251 0.4167 0.0833 (  5289 PWs)   bands (ev):

   -63.2299 -63.2293 -63.2286 -63.2272 -30.3527 -30.3467 -30.3399 -30.3395
   -30.3268 -30.3195 -30.3187 -30.3128 -30.3093 -30.3086 -30.3023 -30.2964
    -6.9977  -6.8037  -6.8031  -6.6186   5.5964   5.5968   5.6002   5.9028
     6.8363   7.2857   7.2864   7.8085   8.1810   8.3943   8.3949   8.5135

          k = 0.4251 0.4167 0.2500 (  5269 PWs)   bands (ev):

   -63.2296 -63.2293 -63.2287 -63.2274 -30.3608 -30.3554 -30.3502 -30.3501
   -30.3165 -30.3113 -30.3106 -30.3075 -30.3074 -30.3067 -30.3015 -30.2972
    -6.9207  -6.7735  -6.7729  -6.6406   5.0919   5.1051   5.1052   5.3800
     7.5633   7.8328   7.8333   8.2243   8.2503   8.4034   8.4039   8.4678

          k = 0.4251 0.4167 0.4167 (  5296 PWs)   bands (ev):

   -63.2293 -63.2292 -63.2288 -63.2276 -30.3654 -30.3633 -30.3571 -30.3571
   -30.3101 -30.3095 -30.3079 -30.3047 -30.3023 -30.3018 -30.3001 -30.2984
    -6.8047  -6.7429  -6.7424  -6.7012   4.7551   4.7551   4.8275   4.9396
     8.2014   8.2507   8.2512   8.3003   8.3894   8.4056   8.4061   8.4638

          k = 0.4084-0.4167 0.0833 (  5277 PWs)   bands (ev):

   -63.2304 -63.2287 -63.2285 -63.2274 -30.3523 -30.3517 -30.3416 -30.3343
   -30.3252 -30.3201 -30.3191 -30.3123 -30.3104 -30.3048 -30.3010 -30.3003
    -7.0385  -6.7610  -6.7604  -6.6620   5.5486   5.6257   5.6261   5.8675
     6.7965   7.3302   7.3309   7.7564   8.2574   8.2580   8.3522   8.6606

          k = 0.4084-0.4167 0.2500 (  5280 PWs)   bands (ev):

   -63.2301 -63.2287 -63.2287 -63.2275 -30.3600 -30.3597 -30.3523 -30.3459
   -30.3127 -30.3125 -30.3118 -30.3096 -30.3055 -30.3040 -30.3010 -30.3004
    -6.9613  -6.7313  -6.7307  -6.6831   5.0223   5.1597   5.1599   5.3193
     7.5491   7.8286   7.8291   8.2316   8.2826   8.2831   8.3921   8.6180

          k = 0.4084-0.4167 0.4167 (  5289 PWs)   bands (ev):

   -63.2297 -63.2290 -63.2287 -63.2275 -30.3659 -30.3657 -30.3575 -30.3550
   -30.3084 -30.3072 -30.3065 -30.3064 -30.3032 -30.3013 -30.3008 -30.3000
    -6.8454  -6.7426  -6.7012  -6.7007   4.7501   4.8223   4.8224   4.8648
     8.1478   8.1484   8.2044   8.3634   8.3638   8.4623   8.4663   8.5450

          k = 0.4117-0.2500 0.0833 (  5287 PWs)   bands (ev):

   -63.2315 -63.2292 -63.2276 -63.2267 -30.3515 -30.3468 -30.3411 -30.3292
   -30.3261 -30.3258 -30.3151 -30.3135 -30.3078 -30.3068 -30.3045 -30.3026
    -7.2504  -6.9111  -6.5787  -6.5578   5.6618   5.7312   5.8416   6.3580
     6.4732   6.9002   7.8124   7.8683   8.0703   8.2000   8.2201   8.6806

          k = 0.4117-0.2500 0.2500 (  5278 PWs)   bands (ev):

   -63.2310 -63.2290 -63.2280 -63.2270 -30.3572 -30.3533 -30.3494 -30.3370
   -30.3195 -30.3185 -30.3115 -30.3092 -30.3064 -30.3063 -30.3040 -30.3008
    -7.1382  -6.8410  -6.6273  -6.5956   5.2466   5.3128   5.4904   5.8208
     7.1946   7.2181   7.9047   8.0860   8.1876   8.2555   8.4863   8.5556

          k = 0.4117-0.2500 0.4167 (  5277 PWs)   bands (ev):

   -63.2301 -63.2290 -63.2285 -63.2274 -30.3608 -30.3592 -30.3517 -30.3470
   -30.3132 -30.3129 -30.3093 -30.3084 -30.3048 -30.3046 -30.3039 -30.2996
    -6.9556  -6.7672  -6.7368  -6.6462   5.0887   5.0908   5.1616   5.3101
     7.5136   7.7843   7.8607   8.2925   8.2952   8.3355   8.3892   8.5595

          k = 0.4151-0.0833 0.0833 (  5280 PWs)   bands (ev):

   -63.2321 -63.2297 -63.2270 -63.2262 -30.3458 -30.3411 -30.3395 -30.3311
   -30.3305 -30.3205 -30.3189 -30.3149 -30.3103 -30.3069 -30.3060 -30.3029
    -7.3717  -7.0121  -6.5020  -6.4897   5.8939   5.9189   6.0504   6.5284
     6.5489   6.8214   7.5513   7.6177   8.0959   8.1857   8.4825   8.5205

          k = 0.4151-0.0833 0.2500 (  5278 PWs)   bands (ev):

   -63.2314 -63.2293 -63.2276 -63.2267 -30.3482 -30.3445 -30.3441 -30.3297
   -30.3293 -30.3268 -30.3118 -30.3117 -30.3099 -30.3094 -30.3060 -30.2993
    -7.2413  -6.9209  -6.6010  -6.5356   5.6219   5.7930   5.8444   6.3586
     6.4614   6.9001   7.7823   7.9440   7.9785   8.2519   8.2569   8.6175

          k = 0.4151-0.0833 0.4167 (  5286 PWs)   bands (ev):

   -63.2302 -63.2289 -63.2285 -63.2273 -30.3502 -30.3488 -30.3441 -30.3386
   -30.3243 -30.3212 -30.3175 -30.3148 -30.3057 -30.3045 -30.3039 -30.2995
    -7.0235  -6.7877  -6.7765  -6.6344   5.5840   5.5983   5.6283   5.8602
     6.7899   7.2874   7.3351   7.8144   8.2596   8.3212   8.3390   8.5913

     highest occupied level (ev):     9.0505

!    total energy              =    -732.45595400 Ry
     Harris-Foulkes estimate   =    -732.45595400 Ry
     estimated scf accuracy    <          3.4E-10 Ry

     total all-electron energy =     -1167.498939 Ry

     The total energy is the sum of the following terms:

     one-electron contribution =    -371.04128847 Ry
     hartree contribution      =      98.07565701 Ry
     xc contribution           =     -78.00145413 Ry
     ewald contribution        =    -371.97541737 Ry
     one-center paw contrib.   =      -9.51345104 Ry

     convergence has been achieved in  11 iterations

     Forces acting on atoms (Ry/au):

     atom    1 type  1   force =     0.00000000    0.00000000    0.00000000
     atom    2 type  1   force =     0.00000000    0.00000000    0.00000000
     atom    3 type  1   force =     0.00000000    0.00000000    0.00000000
     atom    4 type  1   force =     0.00000000    0.00000000    0.00000000
     atom    5 type  2   force =     0.00000000    0.00000000    0.00000000
     atom    6 type  2   force =     0.00000000    0.00000000    0.00000000
     atom    7 type  2   force =     0.00000000    0.00000000    0.00000000
     atom    8 type  2   force =     0.00000000    0.00000000    0.00000000

     Total force =     0.000000     Total SCF correction =     0.000000


     entering subroutine stress ...

          total   stress  (Ry/bohr**3)                   (kbar)     P=    0.21
   0.00000528   0.00018356   0.00000000          0.78     27.00      0.00
   0.00018356   0.00000060   0.00000000         27.00      0.09      0.00
   0.00000000   0.00000000  -0.00000164          0.00      0.00     -0.24


     BFGS Geometry Optimization

     bfgs converged in   1 scf cycles and   0 bfgs steps
     (criteria: energy <  1.0E-04, force <  1.0E-07)

     End of BFGS Geometry Optimization

     Final energy   =    -732.4559539985 Ry
Begin final coordinates

ATOMIC_POSITIONS (crystal)
Mg       0.000000000   0.000000000   0.000000000
Mg       0.000000000   0.500000000   0.500000000
Mg       0.500000000  -0.000000000   0.500000000
Mg       0.500000000   0.500000000   0.000000000
O        0.500000000   0.500000000   0.500000000
O        0.500000000  -0.000000000   0.000000000
O        0.000000000   0.500000000   0.000000000
O        0.000000000   0.000000000   0.500000000
End final coordinates



     Writing output data file pwscf.save
 
     init_run     :      7.11s CPU      9.06s WALL (       1 calls)
     electrons    :    112.88s CPU    160.40s WALL (       1 calls)
     forces       :      0.67s CPU      0.68s WALL (       1 calls)
     stress       :      1.80s CPU      1.86s WALL (       1 calls)

     Called by init_run:
     wfcinit      :      6.24s CPU      8.16s WALL (       1 calls)
     potinit      :      0.29s CPU      0.29s WALL (       1 calls)

     Called by electrons:
     c_bands      :     91.14s CPU    132.53s WALL (      11 calls)
     sum_band     :     20.03s CPU     25.95s WALL (      11 calls)
     v_of_rho     :      0.22s CPU      0.27s WALL (      12 calls)
     newd         :      0.45s CPU      0.51s WALL (      12 calls)
     mix_rho      :      0.03s CPU      0.05s WALL (      11 calls)

     Called by c_bands:
     init_us_2    :      0.90s CPU      1.02s WALL (    1350 calls)
     cegterg      :     88.21s CPU    129.50s WALL (     594 calls)

     Called by *egterg:
     h_psi        :     79.80s CPU    112.84s WALL (    2107 calls)
     s_psi        :      1.52s CPU      1.52s WALL (    2107 calls)
     g_psi        :      0.56s CPU      0.58s WALL (    1459 calls)
     cdiaghg      :      5.49s CPU     12.70s WALL (    2053 calls)

     Called by h_psi:
     add_vuspsi   :      1.55s CPU      1.61s WALL (    2107 calls)

     General routines
     calbec       :      2.25s CPU      2.93s WALL (    2809 calls)
     fft          :      0.33s CPU      0.39s WALL (     180 calls)
     fftw         :     92.80s CPU    127.85s WALL (  123552 calls)
     davcio       :      0.00s CPU      0.02s WALL (      54 calls)
 
     Parallel routines
     fft_scatter  :     70.78s CPU     69.04s WALL (  123732 calls)

     PAW routines
     PAW_pot      :      1.15s CPU      1.21s WALL (      12 calls)
     PAW_symme    :      0.00s CPU      0.00s WALL (      23 calls)
 
     PWSCF        :  2m 3.10s CPU     2m53.53s WALL

 
   This run was terminated on:   9:31:33   2Mar2017            

=------------------------------------------------------------------------------=
   JOB DONE.
=------------------------------------------------------------------------------=
