
     Program PWSCF v.5.1.1 starts on  2Mar2017 at  9:24:21 

     This program is part of the open-source Quantum ESPRESSO suite
     for quantum simulation of materials; please cite
         "P. Giannozzi et al., J. Phys.:Condens. Matter 21 395502 (2009);
          URL http://www.quantum-espresso.org", 
     in publications or presentations arising from this work. More details at
     http://www.quantum-espresso.org/quote

     Parallel version (MPI), running on     4 processors
     R & G space division:  proc/nbgrp/npool/nimage =       4
     Waiting for input...
     Reading input from standard input

     Current dimensions of program PWSCF are:
     Max number of different atomic species (ntypx) = 10
     Max number of k-points (npk) =  40000
     Max angular momentum in pseudopotentials (lmaxx) =  3
               file Mg.pbe-nsp-bpaw.UPF: wavefunction(s)  Xn Xn Xn Xn Xn Xn renormalized

     Subspace diagonalization in iterative solution of the eigenvalue problem:
     a serial algorithm will be used

     Found symmetry operation: I + (  0.0000 -0.5000 -0.5000)
     This is a supercell, fractional translations are disabled
 
     Parallelization info
     --------------------
     sticks:   dense  smooth     PW     G-vecs:    dense   smooth      PW
     Min         366     366    105                10520    10520    1597
     Max         367     367    106                10522    10522    1600
     Sum        1465    1465    421                42083    42083    6395
 


     bravais-lattice index     =            0
     lattice parameter (alat)  =       8.0710  a.u.
     unit-cell volume          =     531.0441 (a.u.)^3
     number of atoms/cell      =            8
     number of atomic types    =            2
     number of electrons       =        64.00
     number of Kohn-Sham states=           32
     kinetic-energy cutoff     =      70.0000  Ry
     charge density cutoff     =     280.0000  Ry
     convergence threshold     =      1.0E-09
     mixing beta               =       0.7000
     number of iterations used =            8  plain     mixing
     Exchange-correlation      =  SLA  PW   PBX  PBC ( 1  4  3  4 0 0)
     nstep                     =           50


     celldm(1)=   8.070967  celldm(2)=   0.000000  celldm(3)=   0.000000
     celldm(4)=   0.000000  celldm(5)=   0.000000  celldm(6)=   0.000000

     crystal axes: (cart. coord. in units of alat)
               a(1) = (   1.000000   0.000000   0.000000 )  
               a(2) = (   0.000000   1.005025   0.000000 )  
               a(3) = (   0.000000   0.000000   1.005025 )  

     reciprocal axes: (cart. coord. in units 2 pi/alat)
               b(1) = (  1.000000  0.000000  0.000000 )  
               b(2) = (  0.000000  0.995000  0.000000 )  
               b(3) = (  0.000000  0.000000  0.995000 )  


     PseudoPot. # 1 for Mg read from file:
     ../pseudo/Mg.pbe-nsp-bpaw.UPF
     MD5 check sum: f47e0adbead6454d4e42896e4aa7b341
     Pseudo is Projector augmented-wave + core cor, Zval = 10.0
     Generated using ATOMPAW code
     Shape of augmentation charge: BESSEL
     Using radial grid of 1171 points,  6 beta functions with: 
                l(1) =   0
                l(2) =   0
                l(3) =   0
                l(4) =   0
                l(5) =   1
                l(6) =   1
     Q(r) pseudized with 0 coefficients 


     PseudoPot. # 2 for  O read from file:
     ../pseudo/O.pbe-kjpaw.UPF
     MD5 check sum: 90f4868982d1b5f8aada8373f3a0510a
     Pseudo is Projector augmented-wave + core cor, Zval =  6.0
     Generated using "atomic" code by A. Dal Corso (espresso distribution)
     Shape of augmentation charge: BESSEL
     Using radial grid of 1095 points,  4 beta functions with: 
                l(1) =   0
                l(2) =   0
                l(3) =   1
                l(4) =   1
     Q(r) pseudized with 0 coefficients 


     atomic species   valence    mass     pseudopotential
        Mg            10.00    24.30500     Mg( 1.00)
        O              6.00    15.99940      O( 1.00)

     16 Sym. Ops., with inversion, found



   Cartesian axes

     site n.     atom                  positions (alat units)
         1           Mg  tau(   1) = (   0.0000000   0.0000000   0.0000000  )
         2           Mg  tau(   2) = (   0.0000000   0.5025126   0.5025126  )
         3           Mg  tau(   3) = (   0.5000000   0.0000000   0.5025126  )
         4           Mg  tau(   4) = (   0.5000000   0.5025126   0.0000000  )
         5           O   tau(   5) = (   0.5000000   0.5025126   0.5025126  )
         6           O   tau(   6) = (   0.5000000   0.0000000   0.0000000  )
         7           O   tau(   7) = (   0.0000000   0.5025126   0.0000000  )
         8           O   tau(   8) = (   0.0000000   0.0000000   0.5025126  )

     number of k points=    18
                       cart. coord. in units 2pi/alat
        k(    1) = (   0.0833333   0.0829167   0.0829167), wk =   0.0740741
        k(    2) = (   0.0833333   0.0829167   0.2487500), wk =   0.1481481
        k(    3) = (   0.0833333   0.0829167   0.4145833), wk =   0.1481481
        k(    4) = (   0.0833333   0.2487500   0.2487500), wk =   0.0740741
        k(    5) = (   0.0833333   0.2487500   0.4145833), wk =   0.1481481
        k(    6) = (   0.0833333   0.4145833   0.4145833), wk =   0.0740741
        k(    7) = (   0.2500000   0.0829167   0.0829167), wk =   0.0740741
        k(    8) = (   0.2500000   0.0829167   0.2487500), wk =   0.1481481
        k(    9) = (   0.2500000   0.0829167   0.4145833), wk =   0.1481481
        k(   10) = (   0.2500000   0.2487500   0.2487500), wk =   0.0740741
        k(   11) = (   0.2500000   0.2487500   0.4145833), wk =   0.1481481
        k(   12) = (   0.2500000   0.4145833   0.4145833), wk =   0.0740741
        k(   13) = (   0.4166667   0.0829167   0.0829167), wk =   0.0740741
        k(   14) = (   0.4166667   0.0829167   0.2487500), wk =   0.1481481
        k(   15) = (   0.4166667   0.0829167   0.4145833), wk =   0.1481481
        k(   16) = (   0.4166667   0.2487500   0.2487500), wk =   0.0740741
        k(   17) = (   0.4166667   0.2487500   0.4145833), wk =   0.1481481
        k(   18) = (   0.4166667   0.4145833   0.4145833), wk =   0.0740741

     Dense  grid:    42083 G-vectors     FFT dimensions: (  45,  45,  45)

     Largest allocated arrays     est. size (Mb)     dimensions
        Kohn-Sham Wavefunctions         0.65 Mb     (    1321,   32)
        NL pseudopotentials             1.45 Mb     (    1321,   72)
        Each V/rho on FFT grid          0.37 Mb     (   24300)
        Each G-vector array             0.08 Mb     (   10522)
        G-vector shells                 0.02 Mb     (    2327)
     Largest temporary arrays     est. size (Mb)     dimensions
        Auxiliary wavefunctions         2.58 Mb     (    1321,  128)
        Each subspace H/S matrix        0.25 Mb     (     128,  128)
        Each <psi_i|beta_j> matrix      0.04 Mb     (      72,   32)
        Arrays for rho mixing           2.97 Mb     (   24300,    8)

     Initial potential from superposition of free atoms

     starting charge   63.99670, renormalised to   64.00000
     Starting wfc are   56 randomized atomic wfcs
     Checking if some PAW data can be deallocated... 

     total cpu time spent up to now is        4.7 secs

     Self-consistent Calculation

     iteration #  1     ecut=    70.00 Ry     beta=0.70
     Davidson diagonalization with overlap
     ethr =  1.00E-02,  avg # of iterations =  1.2

     total cpu time spent up to now is        9.5 secs

     total energy              =    -731.50256405 Ry
     Harris-Foulkes estimate   =    -732.93879739 Ry
     estimated scf accuracy    <       1.82064208 Ry

     iteration #  2     ecut=    70.00 Ry     beta=0.70
     Davidson diagonalization with overlap
     ethr =  2.84E-03,  avg # of iterations =  3.0

     total cpu time spent up to now is       15.9 secs

     total energy              =    -732.02414507 Ry
     Harris-Foulkes estimate   =    -733.11480644 Ry
     estimated scf accuracy    <       2.25674346 Ry

     iteration #  3     ecut=    70.00 Ry     beta=0.70
     Davidson diagonalization with overlap
     ethr =  2.84E-03,  avg # of iterations =  2.2

     total cpu time spent up to now is       21.7 secs

     total energy              =    -732.45203958 Ry
     Harris-Foulkes estimate   =    -732.45280766 Ry
     estimated scf accuracy    <       0.00632964 Ry

     iteration #  4     ecut=    70.00 Ry     beta=0.70
     Davidson diagonalization with overlap
     ethr =  9.89E-06,  avg # of iterations =  3.1

     total cpu time spent up to now is       28.2 secs

     total energy              =    -732.45670700 Ry
     Harris-Foulkes estimate   =    -732.45706824 Ry
     estimated scf accuracy    <       0.00110751 Ry

     iteration #  5     ecut=    70.00 Ry     beta=0.70
     Davidson diagonalization with overlap
     ethr =  1.73E-06,  avg # of iterations =  2.0

     total cpu time spent up to now is       33.6 secs

     total energy              =    -732.45676168 Ry
     Harris-Foulkes estimate   =    -732.45683569 Ry
     estimated scf accuracy    <       0.00024628 Ry

     iteration #  6     ecut=    70.00 Ry     beta=0.70
     Davidson diagonalization with overlap
     ethr =  3.85E-07,  avg # of iterations =  2.1

     total cpu time spent up to now is       39.4 secs

     total energy              =    -732.45678935 Ry
     Harris-Foulkes estimate   =    -732.45679613 Ry
     estimated scf accuracy    <       0.00002287 Ry

     iteration #  7     ecut=    70.00 Ry     beta=0.70
     Davidson diagonalization with overlap
     ethr =  3.57E-08,  avg # of iterations =  3.0

     total cpu time spent up to now is       45.7 secs

     total energy              =    -732.45679599 Ry
     Harris-Foulkes estimate   =    -732.45679707 Ry
     estimated scf accuracy    <       0.00000339 Ry

     iteration #  8     ecut=    70.00 Ry     beta=0.70
     Davidson diagonalization with overlap
     ethr =  5.30E-09,  avg # of iterations =  2.1

     total cpu time spent up to now is       51.3 secs

     total energy              =    -732.45679623 Ry
     Harris-Foulkes estimate   =    -732.45679638 Ry
     estimated scf accuracy    <       0.00000046 Ry

     iteration #  9     ecut=    70.00 Ry     beta=0.70
     Davidson diagonalization with overlap
     ethr =  7.17E-10,  avg # of iterations =  2.6

     total cpu time spent up to now is       57.1 secs

     total energy              =    -732.45679626 Ry
     Harris-Foulkes estimate   =    -732.45679629 Ry
     estimated scf accuracy    <       0.00000004 Ry

     iteration # 10     ecut=    70.00 Ry     beta=0.70
     Davidson diagonalization with overlap
     ethr =  6.01E-11,  avg # of iterations =  3.1

     total cpu time spent up to now is       63.7 secs

     total energy              =    -732.45679628 Ry
     Harris-Foulkes estimate   =    -732.45679628 Ry
     estimated scf accuracy    <          3.0E-09 Ry

     iteration # 11     ecut=    70.00 Ry     beta=0.70
     Davidson diagonalization with overlap
     ethr =  4.62E-12,  avg # of iterations =  2.2

     total cpu time spent up to now is       69.7 secs

     End of self-consistent calculation

          k = 0.0833 0.0829 0.0829 (  5253 PWs)   bands (ev):

   -63.1484 -63.1403 -63.1402 -63.1393 -30.2667 -30.2667 -30.2643 -30.2352
   -30.2337 -30.2333 -30.2324 -30.2304 -30.2300 -30.2138 -30.2103 -30.2081
    -7.7981  -6.4931  -6.4927  -6.4813   5.3308   5.3309   5.3461   7.6337
     7.6493   7.6495   7.8487   7.8688   7.8689   8.6272   9.0401   9.0457

          k = 0.0833 0.0829 0.2488 (  5246 PWs)   bands (ev):

   -63.1473 -63.1412 -63.1403 -63.1394 -30.2628 -30.2609 -30.2604 -30.2400
   -30.2379 -30.2319 -30.2304 -30.2299 -30.2271 -30.2231 -30.2127 -30.2103
    -7.6245  -6.6672  -6.4676  -6.4591   5.5539   5.5672   5.5781   7.1593
     7.1667   7.7718   7.7929   7.8344   7.8357   8.0055   8.8589   8.8884

          k = 0.0833 0.0829 0.4146 (  5247 PWs)   bands (ev):

   -63.1454 -63.1431 -63.1403 -63.1395 -30.2563 -30.2543 -30.2501 -30.2463
   -30.2444 -30.2364 -30.2320 -30.2311 -30.2241 -30.2218 -30.2178 -30.2154
    -7.3219  -6.9709  -6.4410  -6.4378   5.9526   5.9615   6.1028   6.5985
     6.6040   6.8944   7.6255   7.6345   8.1581   8.2553   8.5425   8.5685

          k = 0.0833 0.2488 0.2488 (  5251 PWs)   bands (ev):

   -63.1463 -63.1411 -63.1410 -63.1397 -30.2610 -30.2608 -30.2582 -30.2450
   -30.2335 -30.2328 -30.2322 -30.2279 -30.2270 -30.2269 -30.2134 -30.2115
    -7.4650  -6.6154  -6.6150  -6.4617   5.6173   5.6176   5.7272   6.6687
     7.1759   7.4443   7.4448   7.9873   7.9875   8.0223   8.6465   8.9060

          k = 0.0833 0.2488 0.4146 (  5257 PWs)   bands (ev):

   -63.1447 -63.1426 -63.1409 -63.1400 -30.2601 -30.2581 -30.2551 -30.2453
   -30.2444 -30.2384 -30.2261 -30.2256 -30.2254 -30.2208 -30.2187 -30.2146
    -7.1905  -6.8784  -6.5419  -6.4853   5.7002   5.8168   5.8936   6.4423
     6.5466   6.9435   7.8494   7.9761   8.0390   8.2769   8.3238   8.6829

          k = 0.0833 0.4146 0.4146 (  5266 PWs)   bands (ev):

   -63.1435 -63.1421 -63.1419 -63.1407 -30.2610 -30.2600 -30.2597 -30.2544
   -30.2386 -30.2317 -30.2313 -30.2245 -30.2208 -30.2192 -30.2189 -30.2148
    -6.9704  -6.7318  -6.7315  -6.5867   5.6309   5.6704   5.6707   5.9487
     6.8738   7.3637   7.3641   7.8388   8.3177   8.3822   8.3826   8.6440

          k = 0.2500 0.0829 0.0829 (  5249 PWs)   bands (ev):

   -63.1473 -63.1412 -63.1402 -63.1395 -30.2627 -30.2626 -30.2586 -30.2390
   -30.2389 -30.2311 -30.2298 -30.2293 -30.2293 -30.2220 -30.2133 -30.2111
    -7.6221  -6.6561  -6.4681  -6.4677   5.5561   5.5561   5.5857   7.1732
     7.1735   7.7771   7.7774   7.8222   7.8278   7.9877   8.8600   8.8885

          k = 0.2500 0.0829 0.2488 (  5256 PWs)   bands (ev):

   -63.1463 -63.1413 -63.1408 -63.1398 -30.2608 -30.2599 -30.2592 -30.2445
   -30.2349 -30.2339 -30.2327 -30.2276 -30.2257 -30.2253 -30.2158 -30.2098
    -7.4629  -6.6150  -6.6065  -6.4677   5.6150   5.6186   5.7190   6.6667
     7.1652   7.4423   7.4563   7.9714   7.9721   8.0386   8.6537   8.9048

          k = 0.2500 0.0829 0.4146 (  5252 PWs)   bands (ev):

   -63.1447 -63.1427 -63.1408 -63.1400 -30.2590 -30.2581 -30.2550 -30.2457
   -30.2449 -30.2404 -30.2276 -30.2253 -30.2242 -30.2211 -30.2187 -30.2126
    -7.1888  -6.8774  -6.5377  -6.4865   5.6954   5.8122   5.8864   6.4321
     6.5369   6.9384   7.8628   7.9777   8.0537   8.2875   8.3130   8.6787

          k = 0.2500 0.2488 0.2488 (  5251 PWs)   bands (ev):

   -63.1455 -63.1413 -63.1411 -63.1402 -30.2639 -30.2638 -30.2630 -30.2436
   -30.2339 -30.2339 -30.2329 -30.2255 -30.2236 -30.2234 -30.2136 -30.2115
    -7.3192  -6.5871  -6.5867  -6.5806   5.4810   5.4824   5.4825   6.5442
     7.2911   7.2916   7.2986   8.1288   8.1431   8.1433   8.7744   8.7765

          k = 0.2500 0.2488 0.4146 (  5254 PWs)   bands (ev):

   -63.1441 -63.1424 -63.1412 -63.1404 -30.2666 -30.2663 -30.2624 -30.2550
   -30.2332 -30.2325 -30.2232 -30.2231 -30.2222 -30.2196 -30.2165 -30.2144
    -7.0757  -6.8063  -6.5577  -6.5554   5.3327   5.3343   5.5228   5.9078
     7.2692   7.2762   7.9871   8.1699   8.1785   8.3320   8.5433   8.5631

          k = 0.2500 0.4146 0.4146 (  5252 PWs)   bands (ev):

   -63.1432 -63.1421 -63.1420 -63.1408 -30.2705 -30.2690 -30.2689 -30.2645
   -30.2269 -30.2235 -30.2231 -30.2200 -30.2189 -30.2188 -30.2177 -30.2155
    -6.8913  -6.7004  -6.7001  -6.6076   5.1057   5.1835   5.1836   5.4033
     7.6195   7.8909   7.8912   8.3038   8.3601   8.3997   8.4001   8.5990

          k = 0.4167 0.0829 0.0829 (  5242 PWs)   bands (ev):

   -63.1453 -63.1430 -63.1402 -63.1396 -30.2560 -30.2559 -30.2481 -30.2462
   -30.2460 -30.2347 -30.2299 -30.2294 -30.2244 -30.2243 -30.2184 -30.2171
    -7.3159  -6.9615  -6.4429  -6.4425   5.9577   5.9579   6.1011   6.6085
     6.6088   6.8869   7.6135   7.6139   8.1512   8.2420   8.5427   8.5598

          k = 0.4167 0.0829 0.2488 (  5252 PWs)   bands (ev):

   -63.1446 -63.1427 -63.1408 -63.1401 -30.2598 -30.2582 -30.2540 -30.2459
   -30.2444 -30.2404 -30.2278 -30.2240 -30.2235 -30.2212 -30.2203 -30.2134
    -7.1852  -6.8706  -6.5423  -6.4879   5.6950   5.8130   5.8837   6.4282
     6.5412   6.9489   7.8501   7.9662   8.0433   8.2804   8.3163   8.6818

          k = 0.4167 0.0829 0.4146 (  5262 PWs)   bands (ev):

   -63.1434 -63.1422 -63.1417 -63.1407 -30.2606 -30.2597 -30.2591 -30.2540
   -30.2407 -30.2342 -30.2334 -30.2269 -30.2189 -30.2178 -30.2169 -30.2130
    -6.9667  -6.7300  -6.7268  -6.5857   5.6201   5.6566   5.6581   5.9328
     6.8679   7.3608   7.3676   7.8418   8.3286   8.3829   8.3892   8.6484

          k = 0.4167 0.2488 0.2488 (  5243 PWs)   bands (ev):

   -63.1441 -63.1424 -63.1411 -63.1405 -30.2666 -30.2665 -30.2620 -30.2547
   -30.2342 -30.2338 -30.2219 -30.2219 -30.2211 -30.2210 -30.2173 -30.2141
    -7.0726  -6.8008  -6.5585  -6.5582   5.3327   5.3328   5.5160   5.9016
     7.2720   7.2724   7.9948   8.1723   8.1725   8.3213   8.5493   8.5571

          k = 0.4167 0.2488 0.4146 (  5248 PWs)   bands (ev):

   -63.1432 -63.1422 -63.1418 -63.1409 -30.2705 -30.2690 -30.2688 -30.2645
   -30.2287 -30.2254 -30.2246 -30.2199 -30.2181 -30.2178 -30.2167 -30.2137
    -6.8892  -6.6996  -6.6972  -6.6077   5.1025   5.1771   5.1793   5.3972
     7.6103   7.8893   7.8902   8.3003   8.3700   8.4014   8.4020   8.6042

          k = 0.4167 0.4146 0.4146 (  5276 PWs)   bands (ev):

   -63.1427 -63.1422 -63.1421 -63.1410 -30.2756 -30.2755 -30.2755 -30.2732
   -30.2200 -30.2197 -30.2186 -30.2177 -30.2170 -30.2163 -30.2163 -30.2145
    -6.7725  -6.6688  -6.6683  -6.6675   4.8335   4.8344   4.8345   4.9487
     8.2599   8.2602   8.2688   8.4344   8.4429   8.4430   8.5219   8.5309

     highest occupied level (ev):     9.0457

!    total energy              =    -732.45679628 Ry
     Harris-Foulkes estimate   =    -732.45679628 Ry
     estimated scf accuracy    <          2.1E-11 Ry

     total all-electron energy =     -1167.499781 Ry

     The total energy is the sum of the following terms:

     one-electron contribution =    -370.13596717 Ry
     hartree contribution      =      97.79235001 Ry
     xc contribution           =     -78.02221069 Ry
     ewald contribution        =    -372.58827101 Ry
     one-center paw contrib.   =      -9.50269743 Ry

     convergence has been achieved in  11 iterations

     Forces acting on atoms (Ry/au):

     atom    1 type  1   force =     0.00000000    0.00000000   -0.00000000
     atom    2 type  1   force =     0.00000000    0.00000000    0.00000000
     atom    3 type  1   force =     0.00000000    0.00000000    0.00000000
     atom    4 type  1   force =     0.00000000    0.00000000    0.00000000
     atom    5 type  2   force =     0.00000000    0.00000000    0.00000000
     atom    6 type  2   force =     0.00000000    0.00000000   -0.00000000
     atom    7 type  2   force =     0.00000000    0.00000000    0.00000000
     atom    8 type  2   force =     0.00000000    0.00000000    0.00000000

     Total force =     0.000000     Total SCF correction =     0.000000


     entering subroutine stress ...

          total   stress  (Ry/bohr**3)                   (kbar)     P=    7.87
   0.00009990   0.00000000   0.00000000         14.70      0.00      0.00
   0.00000000   0.00003035   0.00000000          0.00      4.46      0.00
   0.00000000   0.00000000   0.00003035          0.00      0.00      4.46


     BFGS Geometry Optimization

     bfgs converged in   1 scf cycles and   0 bfgs steps
     (criteria: energy <  1.0E-04, force <  1.0E-07)

     End of BFGS Geometry Optimization

     Final energy   =    -732.4567962767 Ry
Begin final coordinates

ATOMIC_POSITIONS (crystal)
Mg       0.000000000   0.000000000   0.000000000
Mg       0.000000000   0.500000000   0.500000000
Mg       0.500000000   0.000000000   0.500000000
Mg       0.500000000   0.500000000   0.000000000
O        0.500000000   0.500000000   0.500000000
O        0.500000000   0.000000000   0.000000000
O        0.000000000   0.500000000   0.000000000
O        0.000000000   0.000000000   0.500000000
End final coordinates



     Writing output data file pwscf.save
 
     init_run     :      3.51s CPU      4.14s WALL (       1 calls)
     electrons    :     52.10s CPU     65.04s WALL (       1 calls)
     forces       :      0.53s CPU      0.53s WALL (       1 calls)
     stress       :      1.26s CPU      1.28s WALL (       1 calls)

     Called by init_run:
     wfcinit      :      2.62s CPU      3.22s WALL (       1 calls)
     potinit      :      0.21s CPU      0.22s WALL (       1 calls)

     Called by electrons:
     c_bands      :     42.14s CPU     52.87s WALL (      11 calls)
     sum_band     :      7.75s CPU      9.76s WALL (      11 calls)
     v_of_rho     :      0.27s CPU      0.33s WALL (      12 calls)
     newd         :      0.57s CPU      0.64s WALL (      12 calls)
     mix_rho      :      0.04s CPU      0.06s WALL (      11 calls)

     Called by c_bands:
     init_us_2    :      0.39s CPU      0.41s WALL (     450 calls)
     cegterg      :     40.68s CPU     51.39s WALL (     198 calls)

     Called by *egterg:
     h_psi        :     33.98s CPU     44.62s WALL (     692 calls)
     s_psi        :      1.41s CPU      1.41s WALL (     692 calls)
     g_psi        :      0.29s CPU      0.29s WALL (     476 calls)
     cdiaghg      :      2.15s CPU      2.05s WALL (     674 calls)

     Called by h_psi:
     add_vuspsi   :      1.41s CPU      1.41s WALL (     692 calls)

     General routines
     calbec       :      2.51s CPU      2.75s WALL (     926 calls)
     fft          :      0.25s CPU      0.32s WALL (     180 calls)
     fftw         :     36.30s CPU     47.44s WALL (   41006 calls)
     davcio       :      0.00s CPU      0.01s WALL (      18 calls)
 
     Parallel routines
     fft_scatter  :     26.64s CPU     25.43s WALL (   41186 calls)

     PAW routines
     PAW_pot      :      1.50s CPU      1.55s WALL (      12 calls)
     PAW_symme    :      0.00s CPU      0.00s WALL (      23 calls)
 
     PWSCF        :  0m58.10s CPU     1m12.00s WALL

 
   This run was terminated on:   9:25:33   2Mar2017            

=------------------------------------------------------------------------------=
   JOB DONE.
=------------------------------------------------------------------------------=
