
     Program PWSCF v.5.1.1 starts on  2Mar2017 at  9:24:22 

     This program is part of the open-source Quantum ESPRESSO suite
     for quantum simulation of materials; please cite
         "P. Giannozzi et al., J. Phys.:Condens. Matter 21 395502 (2009);
          URL http://www.quantum-espresso.org", 
     in publications or presentations arising from this work. More details at
     http://www.quantum-espresso.org/quote

     Parallel version (MPI), running on     4 processors
     R & G space division:  proc/nbgrp/npool/nimage =       4
     Waiting for input...
     Reading input from standard input

     Current dimensions of program PWSCF are:
     Max number of different atomic species (ntypx) = 10
     Max number of k-points (npk) =  40000
     Max angular momentum in pseudopotentials (lmaxx) =  3
               file Mg.pbe-nsp-bpaw.UPF: wavefunction(s)  Xn Xn Xn Xn Xn Xn renormalized

     Subspace diagonalization in iterative solution of the eigenvalue problem:
     a serial algorithm will be used

     Found symmetry operation: I + (  0.0000 -0.5000 -0.5000)
     This is a supercell, fractional translations are disabled
 
     Parallelization info
     --------------------
     sticks:   dense  smooth     PW     G-vecs:    dense   smooth      PW
     Min         367     367    105                10678    10678    1623
     Max         369     369    106                10679    10679    1626
     Sum        1473    1473    421                42715    42715    6499
 


     bravais-lattice index     =            0
     lattice parameter (alat)  =       8.1115  a.u.
     unit-cell volume          =     539.0498 (a.u.)^3
     number of atoms/cell      =            8
     number of atomic types    =            2
     number of electrons       =        64.00
     number of Kohn-Sham states=           32
     kinetic-energy cutoff     =      70.0000  Ry
     charge density cutoff     =     280.0000  Ry
     convergence threshold     =      1.0E-09
     mixing beta               =       0.7000
     number of iterations used =            8  plain     mixing
     Exchange-correlation      =  SLA  PW   PBX  PBC ( 1  4  3  4 0 0)
     nstep                     =           50


     celldm(1)=   8.111525  celldm(2)=   0.000000  celldm(3)=   0.000000
     celldm(4)=   0.000000  celldm(5)=   0.000000  celldm(6)=   0.000000

     crystal axes: (cart. coord. in units of alat)
               a(1) = (   1.000000   0.000000   0.000000 )  
               a(2) = (   0.000000   1.000000   0.000000 )  
               a(3) = (   0.000000   0.000000   1.010000 )  

     reciprocal axes: (cart. coord. in units 2 pi/alat)
               b(1) = (  1.000000  0.000000  0.000000 )  
               b(2) = (  0.000000  1.000000  0.000000 )  
               b(3) = (  0.000000  0.000000  0.990099 )  


     PseudoPot. # 1 for Mg read from file:
     ../pseudo/Mg.pbe-nsp-bpaw.UPF
     MD5 check sum: f47e0adbead6454d4e42896e4aa7b341
     Pseudo is Projector augmented-wave + core cor, Zval = 10.0
     Generated using ATOMPAW code
     Shape of augmentation charge: BESSEL
     Using radial grid of 1171 points,  6 beta functions with: 
                l(1) =   0
                l(2) =   0
                l(3) =   0
                l(4) =   0
                l(5) =   1
                l(6) =   1
     Q(r) pseudized with 0 coefficients 


     PseudoPot. # 2 for  O read from file:
     ../pseudo/O.pbe-kjpaw.UPF
     MD5 check sum: 90f4868982d1b5f8aada8373f3a0510a
     Pseudo is Projector augmented-wave + core cor, Zval =  6.0
     Generated using "atomic" code by A. Dal Corso (espresso distribution)
     Shape of augmentation charge: BESSEL
     Using radial grid of 1095 points,  4 beta functions with: 
                l(1) =   0
                l(2) =   0
                l(3) =   1
                l(4) =   1
     Q(r) pseudized with 0 coefficients 


     atomic species   valence    mass     pseudopotential
        Mg            10.00    24.30500     Mg( 1.00)
        O              6.00    15.99940      O( 1.00)

     16 Sym. Ops., with inversion, found



   Cartesian axes

     site n.     atom                  positions (alat units)
         1           Mg  tau(   1) = (   0.0000000   0.0000000   0.0000000  )
         2           Mg  tau(   2) = (   0.0000000   0.5000000   0.5050000  )
         3           Mg  tau(   3) = (   0.5000000   0.0000000   0.5050000  )
         4           Mg  tau(   4) = (   0.5000000   0.5000000   0.0000000  )
         5           O   tau(   5) = (   0.5000000   0.5000000   0.5050000  )
         6           O   tau(   6) = (   0.5000000   0.0000000   0.0000000  )
         7           O   tau(   7) = (   0.0000000   0.5000000   0.0000000  )
         8           O   tau(   8) = (   0.0000000   0.0000000   0.5050000  )

     number of k points=    18
                       cart. coord. in units 2pi/alat
        k(    1) = (   0.0833333   0.0833333   0.0825083), wk =   0.0740741
        k(    2) = (   0.0833333   0.0833333   0.2475248), wk =   0.0740741
        k(    3) = (   0.0833333   0.0833333   0.4125413), wk =   0.0740741
        k(    4) = (   0.0833333   0.2500000   0.0825083), wk =   0.1481481
        k(    5) = (   0.0833333   0.2500000   0.2475248), wk =   0.1481481
        k(    6) = (   0.0833333   0.2500000   0.4125413), wk =   0.1481481
        k(    7) = (   0.0833333   0.4166667   0.0825083), wk =   0.1481481
        k(    8) = (   0.0833333   0.4166667   0.2475248), wk =   0.1481481
        k(    9) = (   0.0833333   0.4166667   0.4125413), wk =   0.1481481
        k(   10) = (   0.2500000   0.2500000   0.0825083), wk =   0.0740741
        k(   11) = (   0.2500000   0.2500000   0.2475248), wk =   0.0740741
        k(   12) = (   0.2500000   0.2500000   0.4125413), wk =   0.0740741
        k(   13) = (   0.2500000   0.4166667   0.0825083), wk =   0.1481481
        k(   14) = (   0.2500000   0.4166667   0.2475248), wk =   0.1481481
        k(   15) = (   0.2500000   0.4166667   0.4125413), wk =   0.1481481
        k(   16) = (   0.4166667   0.4166667   0.0825083), wk =   0.0740741
        k(   17) = (   0.4166667   0.4166667   0.2475248), wk =   0.0740741
        k(   18) = (   0.4166667   0.4166667   0.4125413), wk =   0.0740741

     Dense  grid:    42715 G-vectors     FFT dimensions: (  45,  45,  45)

     Largest allocated arrays     est. size (Mb)     dimensions
        Kohn-Sham Wavefunctions         0.66 Mb     (    1351,   32)
        NL pseudopotentials             1.48 Mb     (    1351,   72)
        Each V/rho on FFT grid          0.37 Mb     (   24300)
        Each G-vector array             0.08 Mb     (   10679)
        G-vector shells                 0.02 Mb     (    2371)
     Largest temporary arrays     est. size (Mb)     dimensions
        Auxiliary wavefunctions         2.64 Mb     (    1351,  128)
        Each subspace H/S matrix        0.25 Mb     (     128,  128)
        Each <psi_i|beta_j> matrix      0.04 Mb     (      72,   32)
        Arrays for rho mixing           2.97 Mb     (   24300,    8)

     Initial potential from superposition of free atoms

     starting charge   63.99670, renormalised to   64.00000
     Starting wfc are   56 randomized atomic wfcs
     Checking if some PAW data can be deallocated... 

     total cpu time spent up to now is        3.7 secs

     Self-consistent Calculation

     iteration #  1     ecut=    70.00 Ry     beta=0.70
     Davidson diagonalization with overlap
     ethr =  1.00E-02,  avg # of iterations =  1.2

     total cpu time spent up to now is        7.7 secs

     total energy              =    -731.49712707 Ry
     Harris-Foulkes estimate   =    -732.93273023 Ry
     estimated scf accuracy    <       1.83181726 Ry

     iteration #  2     ecut=    70.00 Ry     beta=0.70
     Davidson diagonalization with overlap
     ethr =  2.86E-03,  avg # of iterations =  3.0

     total cpu time spent up to now is       13.2 secs

     total energy              =    -732.00962679 Ry
     Harris-Foulkes estimate   =    -733.13196887 Ry
     estimated scf accuracy    <       2.33377269 Ry

     iteration #  3     ecut=    70.00 Ry     beta=0.70
     Davidson diagonalization with overlap
     ethr =  2.86E-03,  avg # of iterations =  2.1

     total cpu time spent up to now is       18.0 secs

     total energy              =    -732.45211318 Ry
     Harris-Foulkes estimate   =    -732.45275820 Ry
     estimated scf accuracy    <       0.00645332 Ry

     iteration #  4     ecut=    70.00 Ry     beta=0.70
     Davidson diagonalization with overlap
     ethr =  1.01E-05,  avg # of iterations =  3.0

     total cpu time spent up to now is       23.7 secs

     total energy              =    -732.45637890 Ry
     Harris-Foulkes estimate   =    -732.45673167 Ry
     estimated scf accuracy    <       0.00101161 Ry

     iteration #  5     ecut=    70.00 Ry     beta=0.70
     Davidson diagonalization with overlap
     ethr =  1.58E-06,  avg # of iterations =  2.0

     total cpu time spent up to now is       28.5 secs

     total energy              =    -732.45644220 Ry
     Harris-Foulkes estimate   =    -732.45648584 Ry
     estimated scf accuracy    <       0.00014099 Ry

     iteration #  6     ecut=    70.00 Ry     beta=0.70
     Davidson diagonalization with overlap
     ethr =  2.20E-07,  avg # of iterations =  2.2

     total cpu time spent up to now is       33.4 secs

     total energy              =    -732.45646173 Ry
     Harris-Foulkes estimate   =    -732.45646612 Ry
     estimated scf accuracy    <       0.00001268 Ry

     iteration #  7     ecut=    70.00 Ry     beta=0.70
     Davidson diagonalization with overlap
     ethr =  1.98E-08,  avg # of iterations =  3.1

     total cpu time spent up to now is       38.8 secs

     total energy              =    -732.45646528 Ry
     Harris-Foulkes estimate   =    -732.45646726 Ry
     estimated scf accuracy    <       0.00000480 Ry

     iteration #  8     ecut=    70.00 Ry     beta=0.70
     Davidson diagonalization with overlap
     ethr =  7.50E-09,  avg # of iterations =  2.3

     total cpu time spent up to now is       43.6 secs

     total energy              =    -732.45646600 Ry
     Harris-Foulkes estimate   =    -732.45646604 Ry
     estimated scf accuracy    <       0.00000009 Ry

     iteration #  9     ecut=    70.00 Ry     beta=0.70
     Davidson diagonalization with overlap
     ethr =  1.48E-10,  avg # of iterations =  3.4

     total cpu time spent up to now is       49.2 secs

     total energy              =    -732.45646603 Ry
     Harris-Foulkes estimate   =    -732.45646604 Ry
     estimated scf accuracy    <          3.0E-09 Ry

     iteration # 10     ecut=    70.00 Ry     beta=0.70
     Davidson diagonalization with overlap
     ethr =  4.74E-12,  avg # of iterations =  2.1

     total cpu time spent up to now is       54.4 secs

     total energy              =    -732.45646603 Ry
     Harris-Foulkes estimate   =    -732.45646603 Ry
     estimated scf accuracy    <          2.1E-09 Ry

     iteration # 11     ecut=    70.00 Ry     beta=0.70
     Davidson diagonalization with overlap
     ethr =  3.31E-12,  avg # of iterations =  2.0

     total cpu time spent up to now is       59.4 secs

     End of self-consistent calculation

          k = 0.0833 0.0833 0.0825 (  5336 PWs)   bands (ev):

   -63.4008 -63.3934 -63.3933 -63.3919 -30.5196 -30.5148 -30.5147 -30.4894
   -30.4877 -30.4842 -30.4840 -30.4833 -30.4811 -30.4688 -30.4633 -30.4613
    -7.9273  -6.6715  -6.6492  -6.6483   5.1746   5.2032   5.2033   7.4546
     7.4552   7.4903   7.6734   7.6743   7.7074   8.4300   8.8399   8.8514

          k = 0.0833 0.0833 0.2475 (  5320 PWs)   bands (ev):

   -63.3998 -63.3942 -63.3934 -63.3920 -30.5140 -30.5113 -30.5112 -30.4919
   -30.4909 -30.4854 -30.4846 -30.4804 -30.4785 -30.4777 -30.4644 -30.4639
    -7.7608  -6.8401  -6.6277  -6.6269   5.4197   5.4198   5.4222   6.9839
     6.9844   7.6108   7.6119   7.6533   7.6699   7.8398   8.6653   8.6922

          k = 0.0833 0.0833 0.4125 (  5316 PWs)   bands (ev):

   -63.3981 -63.3958 -63.3934 -63.3921 -30.5058 -30.5055 -30.5037 -30.4969
   -30.4961 -30.4905 -30.4866 -30.4854 -30.4749 -30.4739 -30.4688 -30.4685
    -7.4705  -7.1329  -6.6060  -6.6052   5.8059   5.8060   5.9432   6.4347
     6.4352   6.7251   7.4709   7.4722   7.9843   8.0813   8.3590   8.3823

          k = 0.0833 0.2500 0.0825 (  5317 PWs)   bands (ev):

   -63.3997 -63.3942 -63.3933 -63.3922 -30.5158 -30.5110 -30.5094 -30.4935
   -30.4888 -30.4851 -30.4830 -30.4810 -30.4805 -30.4753 -30.4678 -30.4634
    -7.7563  -6.8183  -6.6448  -6.6280   5.3990   5.4239   5.4362   6.9983
     7.0126   7.5798   7.6201   7.6377   7.6406   7.8113   8.6628   8.6974

          k = 0.0833 0.2500 0.2475 (  5336 PWs)   bands (ev):

   -63.3989 -63.3942 -63.3939 -63.3924 -30.5135 -30.5101 -30.5090 -30.4970
   -30.4861 -30.4856 -30.4841 -30.4819 -30.4802 -30.4776 -30.4672 -30.4645
    -7.6037  -6.7875  -6.7709  -6.6306   5.4652   5.4717   5.5797   6.5079
     6.9944   7.2590   7.2869   7.8077   7.8081   7.8430   8.4563   8.7128

          k = 0.0833 0.2500 0.4125 (  5340 PWs)   bands (ev):

   -63.3974 -63.3954 -63.3939 -63.3926 -30.5101 -30.5088 -30.5075 -30.4977
   -30.4959 -30.4904 -30.4803 -30.4790 -30.4781 -30.4723 -30.4718 -30.4670
    -7.3408  -7.0411  -6.7040  -6.6522   5.5512   5.6664   5.7388   6.2768
     6.3842   6.7699   7.6846   7.8090   7.8703   8.0999   8.1364   8.4907

          k = 0.0833 0.4167 0.0825 (  5320 PWs)   bands (ev):

   -63.3979 -63.3958 -63.3933 -63.3923 -30.5093 -30.5053 -30.4997 -30.4993
   -30.4957 -30.4870 -30.4827 -30.4815 -30.4795 -30.4751 -30.4734 -30.4687
    -7.4588  -7.1148  -6.6155  -6.6093   5.7997   5.8161   5.9395   6.4453
     6.4549   6.7102   7.4302   7.4479   7.9642   8.0628   8.3449   8.3804

          k = 0.0833 0.4167 0.2475 (  5335 PWs)   bands (ev):

   -63.3973 -63.3955 -63.3938 -63.3927 -30.5119 -30.5093 -30.5052 -30.4966
   -30.4962 -30.4903 -30.4784 -30.4779 -30.4771 -30.4754 -30.4722 -30.4686
    -7.3338  -7.0278  -6.7131  -6.6552   5.5510   5.6683   5.7332   6.2690
     6.3929   6.7905   7.6598   7.7861   7.8496   8.0861   8.1436   8.4969

          k = 0.0833 0.4167 0.4125 (  5334 PWs)   bands (ev):

   -63.3963 -63.3951 -63.3947 -63.3932 -30.5118 -30.5113 -30.5103 -30.5056
   -30.4906 -30.4844 -30.4835 -30.4774 -30.4738 -30.4729 -30.4714 -30.4681
    -7.1241  -6.8957  -6.8896  -6.7523   5.4818   5.5167   5.5198   5.7888
     6.7115   7.1879   7.2012   7.6621   8.1355   8.1927   8.2052   8.4567

          k = 0.2500 0.2500 0.0825 (  5319 PWs)   bands (ev):

   -63.3988 -63.3943 -63.3936 -63.3925 -30.5128 -30.5101 -30.5095 -30.4952
   -30.4897 -30.4881 -30.4845 -30.4788 -30.4781 -30.4766 -30.4714 -30.4621
    -7.5996  -6.7710  -6.7702  -6.6426   5.4664   5.4668   5.5647   6.5039
     6.9733   7.2827   7.2840   7.7769   7.7774   7.8743   8.4709   8.7105

          k = 0.2500 0.2500 0.2475 (  5328 PWs)   bands (ev):

   -63.3981 -63.3943 -63.3941 -63.3928 -30.5155 -30.5137 -30.5135 -30.4954
   -30.4868 -30.4863 -30.4853 -30.4783 -30.4775 -30.4747 -30.4681 -30.4640
    -7.4623  -6.7584  -6.7465  -6.7457   5.3340   5.3342   5.3376   6.3729
     7.1160   7.1297   7.1306   7.9478   7.9485   7.9757   8.5825   8.5866

          k = 0.2500 0.2500 0.4125 (  5336 PWs)   bands (ev):

   -63.3969 -63.3952 -63.3943 -63.3929 -30.5168 -30.5167 -30.5137 -30.5064
   -30.4846 -30.4836 -30.4778 -30.4769 -30.4764 -30.4714 -30.4697 -30.4674
    -7.2293  -6.9704  -6.7218  -6.7210   5.1903   5.1904   5.3787   5.7542
     7.1049   7.1057   7.8015   7.9948   7.9956   8.1584   8.3509   8.3815

          k = 0.2500 0.4167 0.0825 (  5320 PWs)   bands (ev):

   -63.3973 -63.3955 -63.3938 -63.3928 -30.5096 -30.5095 -30.5048 -30.4983
   -30.4956 -30.4944 -30.4828 -30.4767 -30.4762 -30.4751 -30.4714 -30.4651
    -7.3307  -7.0261  -6.7050  -6.6578   5.5408   5.6592   5.7187   6.2487
     6.3742   6.7814   7.6869   7.7896   7.8784   8.1074   8.1220   8.4887

          k = 0.2500 0.4167 0.2475 (  5335 PWs)   bands (ev):

   -63.3968 -63.3953 -63.3941 -63.3930 -30.5173 -30.5168 -30.5126 -30.5058
   -30.4868 -30.4863 -30.4769 -30.4747 -30.4733 -30.4728 -30.4716 -30.4665
    -7.2233  -6.9597  -6.7274  -6.7228   5.1874   5.1909   5.3652   5.7419
     7.0976   7.1114   7.8169   7.9833   8.0001   8.1379   8.3629   8.3700

          k = 0.2500 0.4167 0.4125 (  5335 PWs)   bands (ev):

   -63.3960 -63.3951 -63.3948 -63.3934 -30.5207 -30.5194 -30.5191 -30.5150
   -30.4801 -30.4775 -30.4757 -30.4730 -30.4727 -30.4720 -30.4703 -30.4680
    -7.0478  -6.8651  -6.8605  -6.7731   4.9647   5.0376   5.0420   5.2535
     7.4468   7.7133   7.7154   8.1207   8.1774   8.2160   8.2170   8.4127

          k = 0.4167 0.4167 0.0825 (  5325 PWs)   bands (ev):

   -63.3962 -63.3953 -63.3945 -63.3933 -30.5110 -30.5100 -30.5094 -30.5046
   -30.4946 -30.4892 -30.4877 -30.4820 -30.4704 -30.4695 -30.4686 -30.4649
    -7.1170  -6.8870  -6.8862  -6.7508   5.4603   5.4916   5.4921   5.7573
     6.7007   7.1955   7.1967   7.6690   8.1567   8.2060   8.2067   8.4655

          k = 0.4167 0.4167 0.2475 (  5345 PWs)   bands (ev):

   -63.3960 -63.3953 -63.3946 -63.3934 -30.5207 -30.5191 -30.5190 -30.5149
   -30.4829 -30.4800 -30.4790 -30.4748 -30.4698 -30.4694 -30.4686 -30.4656
    -7.0439  -6.8597  -6.8589  -6.7735   4.9584   5.0291   5.0291   5.2413
     7.4290   7.7118   7.7126   8.1144   8.1969   8.2198   8.2205   8.4230

          k = 0.4167 0.4167 0.4125 (  5352 PWs)   bands (ev):

   -63.3956 -63.3953 -63.3949 -63.3935 -30.5254 -30.5253 -30.5253 -30.5231
   -30.4744 -30.4739 -30.4730 -30.4714 -30.4699 -30.4689 -30.4684 -30.4667
    -6.9332  -6.8335  -6.8320  -6.8313   4.6957   4.6958   4.6977   4.8077
     8.0705   8.0869   8.0876   8.2507   8.2513   8.2674   8.3325   8.3502

     highest occupied level (ev):     8.8514

!    total energy              =    -732.45646603 Ry
     Harris-Foulkes estimate   =    -732.45646603 Ry
     estimated scf accuracy    <          4.3E-11 Ry

     total all-electron energy =     -1167.499451 Ry

     The total energy is the sum of the following terms:

     one-electron contribution =    -372.91230509 Ry
     hartree contribution      =      98.67751370 Ry
     xc contribution           =     -77.96247274 Ry
     ewald contribution        =    -370.72614552 Ry
     one-center paw contrib.   =      -9.53305640 Ry

     convergence has been achieved in  11 iterations

     Forces acting on atoms (Ry/au):

     atom    1 type  1   force =     0.00000000    0.00000000    0.00000000
     atom    2 type  1   force =     0.00000000    0.00000000    0.00000000
     atom    3 type  1   force =     0.00000000    0.00000000    0.00000000
     atom    4 type  1   force =     0.00000000    0.00000000    0.00000000
     atom    5 type  2   force =     0.00000000    0.00000000    0.00000000
     atom    6 type  2   force =     0.00000000    0.00000000    0.00000000
     atom    7 type  2   force =     0.00000000    0.00000000    0.00000000
     atom    8 type  2   force =     0.00000000    0.00000000    0.00000000

     Total force =     0.000000     Total SCF correction =     0.000000


     entering subroutine stress ...

          total   stress  (Ry/bohr**3)                   (kbar)     P=  -13.83
  -0.00005277   0.00000000   0.00000000         -7.76      0.00      0.00
   0.00000000  -0.00005277   0.00000000          0.00     -7.76      0.00
   0.00000000   0.00000000  -0.00017658          0.00      0.00    -25.98


     BFGS Geometry Optimization

     bfgs converged in   1 scf cycles and   0 bfgs steps
     (criteria: energy <  1.0E-04, force <  1.0E-07)

     End of BFGS Geometry Optimization

     Final energy   =    -732.4564660341 Ry
Begin final coordinates

ATOMIC_POSITIONS (crystal)
Mg       0.000000000   0.000000000   0.000000000
Mg       0.000000000   0.500000000   0.500000000
Mg       0.500000000   0.000000000   0.500000000
Mg       0.500000000   0.500000000   0.000000000
O        0.500000000   0.500000000   0.500000000
O        0.500000000   0.000000000   0.000000000
O        0.000000000   0.500000000   0.000000000
O        0.000000000   0.000000000   0.500000000
End final coordinates



     Writing output data file pwscf.save
 
     init_run     :      2.48s CPU      3.08s WALL (       1 calls)
     electrons    :     41.71s CPU     55.69s WALL (       1 calls)
     forces       :      0.33s CPU      0.34s WALL (       1 calls)
     stress       :      0.87s CPU      0.91s WALL (       1 calls)

     Called by init_run:
     wfcinit      :      1.87s CPU      2.45s WALL (       1 calls)
     potinit      :      0.18s CPU      0.20s WALL (       1 calls)

     Called by electrons:
     c_bands      :     33.36s CPU     45.39s WALL (      11 calls)
     sum_band     :      6.62s CPU      8.35s WALL (      11 calls)
     v_of_rho     :      0.21s CPU      0.27s WALL (      12 calls)
     newd         :      0.45s CPU      0.52s WALL (      12 calls)
     mix_rho      :      0.05s CPU      0.06s WALL (      11 calls)

     Called by c_bands:
     init_us_2    :      0.30s CPU      0.32s WALL (     450 calls)
     cegterg      :     32.33s CPU     44.34s WALL (     198 calls)

     Called by *egterg:
     h_psi        :     29.31s CPU     38.94s WALL (     688 calls)
     s_psi        :      0.49s CPU      0.48s WALL (     688 calls)
     g_psi        :      0.18s CPU      0.20s WALL (     472 calls)
     cdiaghg      :      1.77s CPU      3.81s WALL (     670 calls)

     Called by h_psi:
     add_vuspsi   :      0.47s CPU      0.50s WALL (     688 calls)

     General routines
     calbec       :      0.82s CPU      1.04s WALL (     922 calls)
     fft          :      0.24s CPU      0.30s WALL (     180 calls)
     fftw         :     33.41s CPU     43.46s WALL (   41574 calls)
     davcio       :      0.00s CPU      0.01s WALL (      18 calls)
 
     Parallel routines
     fft_scatter  :     26.14s CPU     23.97s WALL (   41754 calls)

     PAW routines
     PAW_pot      :      1.17s CPU      1.24s WALL (      12 calls)
     PAW_symme    :      0.01s CPU      0.00s WALL (      23 calls)
 
     PWSCF        :  0m46.02s CPU     1m 1.20s WALL

 
   This run was terminated on:   9:25:23   2Mar2017            

=------------------------------------------------------------------------------=
   JOB DONE.
=------------------------------------------------------------------------------=
