
     Program PWSCF v.5.1.1 starts on  2Mar2017 at  9:33: 0 

     This program is part of the open-source Quantum ESPRESSO suite
     for quantum simulation of materials; please cite
         "P. Giannozzi et al., J. Phys.:Condens. Matter 21 395502 (2009);
          URL http://www.quantum-espresso.org", 
     in publications or presentations arising from this work. More details at
     http://www.quantum-espresso.org/quote

     Parallel version (MPI), running on     4 processors
     R & G space division:  proc/nbgrp/npool/nimage =       4
     Waiting for input...
     Reading input from standard input

     Current dimensions of program PWSCF are:
     Max number of different atomic species (ntypx) = 10
     Max number of k-points (npk) =  40000
     Max angular momentum in pseudopotentials (lmaxx) =  3
               file Mg.pbe-nsp-bpaw.UPF: wavefunction(s)  Xn Xn Xn Xn Xn Xn renormalized

     Subspace diagonalization in iterative solution of the eigenvalue problem:
     a serial algorithm will be used

     Found symmetry operation: I + (  0.0000 -0.5000 -0.5000)
     This is a supercell, fractional translations are disabled
 
     Parallelization info
     --------------------
     sticks:   dense  smooth     PW     G-vecs:    dense   smooth      PW
     Min         368     368    105                10575    10575    1607
     Max         369     369    106                10576    10576    1609
     Sum        1473    1473    421                42303    42303    6431
 


     bravais-lattice index     =            0
     lattice parameter (alat)  =       8.1115  a.u.
     unit-cell volume          =     533.7127 (a.u.)^3
     number of atoms/cell      =            8
     number of atomic types    =            2
     number of electrons       =        64.00
     number of Kohn-Sham states=           32
     kinetic-energy cutoff     =      70.0000  Ry
     charge density cutoff     =     280.0000  Ry
     convergence threshold     =      1.0E-09
     mixing beta               =       0.7000
     number of iterations used =            8  plain     mixing
     Exchange-correlation      =  SLA  PW   PBX  PBC ( 1  4  3  4 0 0)
     nstep                     =           50


     celldm(1)=   8.111525  celldm(2)=   0.000000  celldm(3)=   0.000000
     celldm(4)=   0.000000  celldm(5)=   0.000000  celldm(6)=   0.000000

     crystal axes: (cart. coord. in units of alat)
               a(1) = (   1.000000   0.000000   0.000000 )  
               a(2) = (   0.000000   1.000000   0.010000 )  
               a(3) = (   0.000000   0.000000   1.000000 )  

     reciprocal axes: (cart. coord. in units 2 pi/alat)
               b(1) = (  1.000000  0.000000  0.000000 )  
               b(2) = (  0.000000  1.000000  0.000000 )  
               b(3) = (  0.000000 -0.010000  1.000000 )  


     PseudoPot. # 1 for Mg read from file:
     ../pseudo/Mg.pbe-nsp-bpaw.UPF
     MD5 check sum: f47e0adbead6454d4e42896e4aa7b341
     Pseudo is Projector augmented-wave + core cor, Zval = 10.0
     Generated using ATOMPAW code
     Shape of augmentation charge: BESSEL
     Using radial grid of 1171 points,  6 beta functions with: 
                l(1) =   0
                l(2) =   0
                l(3) =   0
                l(4) =   0
                l(5) =   1
                l(6) =   1
     Q(r) pseudized with 0 coefficients 


     PseudoPot. # 2 for  O read from file:
     ../pseudo/O.pbe-kjpaw.UPF
     MD5 check sum: 90f4868982d1b5f8aada8373f3a0510a
     Pseudo is Projector augmented-wave + core cor, Zval =  6.0
     Generated using "atomic" code by A. Dal Corso (espresso distribution)
     Shape of augmentation charge: BESSEL
     Using radial grid of 1095 points,  4 beta functions with: 
                l(1) =   0
                l(2) =   0
                l(3) =   1
                l(4) =   1
     Q(r) pseudized with 0 coefficients 


     atomic species   valence    mass     pseudopotential
        Mg            10.00    24.30500     Mg( 1.00)
        O              6.00    15.99940      O( 1.00)

      4 Sym. Ops., with inversion, found



   Cartesian axes

     site n.     atom                  positions (alat units)
         1           Mg  tau(   1) = (   0.0000000   0.0000000   0.0000000  )
         2           Mg  tau(   2) = (   0.0000000   0.5000000   0.5050000  )
         3           Mg  tau(   3) = (   0.5000000   0.0000000   0.5000000  )
         4           Mg  tau(   4) = (   0.5000000   0.5000000   0.0050000  )
         5           O   tau(   5) = (   0.5000000   0.5000000   0.5050000  )
         6           O   tau(   6) = (   0.5000000   0.0000000   0.0000000  )
         7           O   tau(   7) = (   0.0000000   0.5000000   0.0050000  )
         8           O   tau(   8) = (   0.0000000   0.0000000   0.5000000  )

     number of k points=    54
                       cart. coord. in units 2pi/alat
        k(    1) = (   0.0833333   0.0825000   0.0833333), wk =   0.0370370
        k(    2) = (   0.0833333   0.0808333   0.2500000), wk =   0.0370370
        k(    3) = (   0.0833333   0.0791667   0.4166667), wk =   0.0370370
        k(    4) = (   0.0833333   0.0875000  -0.4166667), wk =   0.0370370
        k(    5) = (   0.0833333   0.0858333  -0.2500000), wk =   0.0370370
        k(    6) = (   0.0833333   0.0841667  -0.0833333), wk =   0.0370370
        k(    7) = (   0.0833333   0.2491667   0.0833333), wk =   0.0370370
        k(    8) = (   0.0833333   0.2475000   0.2500000), wk =   0.0370370
        k(    9) = (   0.0833333   0.2458333   0.4166667), wk =   0.0370370
        k(   10) = (   0.0833333   0.2541667  -0.4166667), wk =   0.0370370
        k(   11) = (   0.0833333   0.2525000  -0.2500000), wk =   0.0370370
        k(   12) = (   0.0833333   0.2508333  -0.0833333), wk =   0.0370370
        k(   13) = (   0.0833333   0.4158333   0.0833333), wk =   0.0370370
        k(   14) = (   0.0833333   0.4141667   0.2500000), wk =   0.0370370
        k(   15) = (   0.0833333   0.4125000   0.4166667), wk =   0.0370370
        k(   16) = (   0.0833333   0.4208333  -0.4166667), wk =   0.0370370
        k(   17) = (   0.0833333   0.4191667  -0.2500000), wk =   0.0370370
        k(   18) = (   0.0833333   0.4175000  -0.0833333), wk =   0.0370370
        k(   19) = (   0.2500000   0.0825000   0.0833333), wk =   0.0370370
        k(   20) = (   0.2500000   0.0808333   0.2500000), wk =   0.0370370
        k(   21) = (   0.2500000   0.0791667   0.4166667), wk =   0.0370370
        k(   22) = (   0.2500000   0.0875000  -0.4166667), wk =   0.0370370
        k(   23) = (   0.2500000   0.0858333  -0.2500000), wk =   0.0370370
        k(   24) = (   0.2500000   0.0841667  -0.0833333), wk =   0.0370370
        k(   25) = (   0.2500000   0.2491667   0.0833333), wk =   0.0370370
        k(   26) = (   0.2500000   0.2475000   0.2500000), wk =   0.0370370
        k(   27) = (   0.2500000   0.2458333   0.4166667), wk =   0.0370370
        k(   28) = (   0.2500000   0.2541667  -0.4166667), wk =   0.0370370
        k(   29) = (   0.2500000   0.2525000  -0.2500000), wk =   0.0370370
        k(   30) = (   0.2500000   0.2508333  -0.0833333), wk =   0.0370370
        k(   31) = (   0.2500000   0.4158333   0.0833333), wk =   0.0370370
        k(   32) = (   0.2500000   0.4141667   0.2500000), wk =   0.0370370
        k(   33) = (   0.2500000   0.4125000   0.4166667), wk =   0.0370370
        k(   34) = (   0.2500000   0.4208333  -0.4166667), wk =   0.0370370
        k(   35) = (   0.2500000   0.4191667  -0.2500000), wk =   0.0370370
        k(   36) = (   0.2500000   0.4175000  -0.0833333), wk =   0.0370370
        k(   37) = (   0.4166667   0.0825000   0.0833333), wk =   0.0370370
        k(   38) = (   0.4166667   0.0808333   0.2500000), wk =   0.0370370
        k(   39) = (   0.4166667   0.0791667   0.4166667), wk =   0.0370370
        k(   40) = (   0.4166667   0.0875000  -0.4166667), wk =   0.0370370
        k(   41) = (   0.4166667   0.0858333  -0.2500000), wk =   0.0370370
        k(   42) = (   0.4166667   0.0841667  -0.0833333), wk =   0.0370370
        k(   43) = (   0.4166667   0.2491667   0.0833333), wk =   0.0370370
        k(   44) = (   0.4166667   0.2475000   0.2500000), wk =   0.0370370
        k(   45) = (   0.4166667   0.2458333   0.4166667), wk =   0.0370370
        k(   46) = (   0.4166667   0.2541667  -0.4166667), wk =   0.0370370
        k(   47) = (   0.4166667   0.2525000  -0.2500000), wk =   0.0370370
        k(   48) = (   0.4166667   0.2508333  -0.0833333), wk =   0.0370370
        k(   49) = (   0.4166667   0.4158333   0.0833333), wk =   0.0370370
        k(   50) = (   0.4166667   0.4141667   0.2500000), wk =   0.0370370
        k(   51) = (   0.4166667   0.4125000   0.4166667), wk =   0.0370370
        k(   52) = (   0.4166667   0.4208333  -0.4166667), wk =   0.0370370
        k(   53) = (   0.4166667   0.4191667  -0.2500000), wk =   0.0370370
        k(   54) = (   0.4166667   0.4175000  -0.0833333), wk =   0.0370370

     Dense  grid:    42303 G-vectors     FFT dimensions: (  45,  45,  45)

     Largest allocated arrays     est. size (Mb)     dimensions
        Kohn-Sham Wavefunctions         0.65 Mb     (    1339,   32)
        NL pseudopotentials             1.47 Mb     (    1339,   72)
        Each V/rho on FFT grid          0.37 Mb     (   24300)
        Each G-vector array             0.08 Mb     (   10576)
        G-vector shells                 0.06 Mb     (    8131)
     Largest temporary arrays     est. size (Mb)     dimensions
        Auxiliary wavefunctions         2.62 Mb     (    1339,  128)
        Each subspace H/S matrix        0.25 Mb     (     128,  128)
        Each <psi_i|beta_j> matrix      0.04 Mb     (      72,   32)
        Arrays for rho mixing           2.97 Mb     (   24300,    8)

     Initial potential from superposition of free atoms

     starting charge   63.99670, renormalised to   64.00000
     Starting wfc are   56 randomized atomic wfcs
     Checking if some PAW data can be deallocated... 

     total cpu time spent up to now is       12.3 secs

     Self-consistent Calculation

     iteration #  1     ecut=    70.00 Ry     beta=0.70
     Davidson diagonalization with overlap
     ethr =  1.00E-02,  avg # of iterations =  1.2

     total cpu time spent up to now is       23.0 secs

     total energy              =    -731.49645711 Ry
     Harris-Foulkes estimate   =    -732.94417228 Ry
     estimated scf accuracy    <       1.82095769 Ry

     iteration #  2     ecut=    70.00 Ry     beta=0.70
     Davidson diagonalization with overlap
     ethr =  2.85E-03,  avg # of iterations =  3.0

     total cpu time spent up to now is       39.3 secs

     total energy              =    -732.01924906 Ry
     Harris-Foulkes estimate   =    -733.11920616 Ry
     estimated scf accuracy    <       2.27869264 Ry

     iteration #  3     ecut=    70.00 Ry     beta=0.70
     Davidson diagonalization with overlap
     ethr =  2.85E-03,  avg # of iterations =  2.9

     total cpu time spent up to now is       53.8 secs

     total energy              =    -732.45166068 Ry
     Harris-Foulkes estimate   =    -732.45244283 Ry
     estimated scf accuracy    <       0.00640768 Ry

     iteration #  4     ecut=    70.00 Ry     beta=0.70
     Davidson diagonalization with overlap
     ethr =  1.00E-05,  avg # of iterations =  3.5

     total cpu time spent up to now is       71.0 secs

     total energy              =    -732.45657462 Ry
     Harris-Foulkes estimate   =    -732.45697798 Ry
     estimated scf accuracy    <       0.00110858 Ry

     iteration #  5     ecut=    70.00 Ry     beta=0.70
     Davidson diagonalization with overlap
     ethr =  1.73E-06,  avg # of iterations =  2.0

     total cpu time spent up to now is       84.4 secs

     total energy              =    -732.45665112 Ry
     Harris-Foulkes estimate   =    -732.45672909 Ry
     estimated scf accuracy    <       0.00024828 Ry

     iteration #  6     ecut=    70.00 Ry     beta=0.70
     Davidson diagonalization with overlap
     ethr =  3.88E-07,  avg # of iterations =  2.0

     total cpu time spent up to now is      103.4 secs

     total energy              =    -732.45667494 Ry
     Harris-Foulkes estimate   =    -732.45668307 Ry
     estimated scf accuracy    <       0.00002618 Ry

     iteration #  7     ecut=    70.00 Ry     beta=0.70
     Davidson diagonalization with overlap
     ethr =  4.09E-08,  avg # of iterations =  3.0

     total cpu time spent up to now is      118.5 secs

     total energy              =    -732.45668276 Ry
     Harris-Foulkes estimate   =    -732.45668396 Ry
     estimated scf accuracy    <       0.00000401 Ry

     iteration #  8     ecut=    70.00 Ry     beta=0.70
     Davidson diagonalization with overlap
     ethr =  6.27E-09,  avg # of iterations =  2.0

     total cpu time spent up to now is      132.8 secs

     total energy              =    -732.45668290 Ry
     Harris-Foulkes estimate   =    -732.45668320 Ry
     estimated scf accuracy    <       0.00000087 Ry

     iteration #  9     ecut=    70.00 Ry     beta=0.70
     Davidson diagonalization with overlap
     ethr =  1.36E-09,  avg # of iterations =  2.1

     total cpu time spent up to now is      147.0 secs

     total energy              =    -732.45668298 Ry
     Harris-Foulkes estimate   =    -732.45668301 Ry
     estimated scf accuracy    <       0.00000006 Ry

     iteration # 10     ecut=    70.00 Ry     beta=0.70
     Davidson diagonalization with overlap
     ethr =  9.80E-11,  avg # of iterations =  3.0

     total cpu time spent up to now is      163.5 secs

     total energy              =    -732.45668300 Ry
     Harris-Foulkes estimate   =    -732.45668300 Ry
     estimated scf accuracy    <          2.8E-09 Ry

     iteration # 11     ecut=    70.00 Ry     beta=0.70
     Davidson diagonalization with overlap
     ethr =  4.40E-12,  avg # of iterations =  2.4

     total cpu time spent up to now is      178.9 secs

     End of self-consistent calculation

          k = 0.0833 0.0825 0.0833 (  5281 PWs)   bands (ev):

   -63.2338 -63.2259 -63.2259 -63.2247 -30.3515 -30.3513 -30.3506 -30.3191
   -30.3185 -30.3183 -30.3174 -30.3165 -30.3161 -30.2982 -30.2973 -30.2942
    -7.8418  -6.5458  -6.5439  -6.5435   5.2873   5.2874   5.2875   7.5337
     7.5872   7.5876   7.8009   7.8013   7.8579   8.5381   8.9664   9.0129

          k = 0.0833 0.0808 0.2500 (  5272 PWs)   bands (ev):

   -63.2327 -63.2267 -63.2259 -63.2249 -30.3482 -30.3467 -30.3463 -30.3237
   -30.3226 -30.3175 -30.3154 -30.3147 -30.3134 -30.3069 -30.2990 -30.2973
    -7.6701  -6.7151  -6.5233  -6.5187   5.5078   5.5093   5.5291   7.0746
     7.1119   7.7196   7.7537   7.7663   7.7739   7.9367   8.7935   8.8439

          k = 0.0833 0.0792 0.4167 (  5267 PWs)   bands (ev):

   -63.2308 -63.2285 -63.2259 -63.2250 -30.3423 -30.3401 -30.3361 -30.3303
   -30.3297 -30.3198 -30.3175 -30.3152 -30.3090 -30.3076 -30.3039 -30.3024
    -7.3700  -7.0159  -6.5001  -6.4940   5.9003   5.9126   6.0488   6.5395
     6.5494   6.8266   7.5579   7.5905   8.0954   8.1861   8.4839   8.5074

          k = 0.0833 0.0875-0.4167 (  5268 PWs)   bands (ev):

   -63.2308 -63.2286 -63.2259 -63.2250 -30.3408 -30.3391 -30.3334 -30.3322
   -30.3312 -30.3229 -30.3170 -30.3148 -30.3103 -30.3084 -30.3032 -30.3007
    -7.3649  -7.0214  -6.5001  -6.4942   5.9015   5.9137   6.0479   6.5521
     6.5612   6.8388   7.5429   7.5746   8.0952   8.1913   8.4723   8.5005

          k = 0.0833 0.0858-0.2500 (  5273 PWs)   bands (ev):

   -63.2327 -63.2268 -63.2259 -63.2249 -30.3467 -30.3461 -30.3444 -30.3261
   -30.3244 -30.3163 -30.3161 -30.3144 -30.3134 -30.3100 -30.2983 -30.2953
    -7.6666  -6.7195  -6.5232  -6.5191   5.5120   5.5133   5.5328   7.1092
     7.1451   7.6779   7.7230   7.7688   7.7846   7.9402   8.7854   8.8135

          k = 0.0833 0.0842-0.0833 (  5287 PWs)   bands (ev):

   -63.2338 -63.2259 -63.2259 -63.2247 -30.3507 -30.3507 -30.3506 -30.3210
   -30.3195 -30.3190 -30.3167 -30.3161 -30.3148 -30.3009 -30.2957 -30.2932
    -7.8405  -6.5458  -6.5452  -6.5441   5.2891   5.2894   5.2896   7.5844
     7.5849   7.6386   7.7459   7.8021   7.8026   8.5836   8.9413   8.9881

          k = 0.0833 0.2492 0.0833 (  5272 PWs)   bands (ev):

   -63.2327 -63.2267 -63.2259 -63.2249 -30.3482 -30.3467 -30.3463 -30.3237
   -30.3225 -30.3176 -30.3154 -30.3147 -30.3133 -30.3069 -30.2990 -30.2973
    -7.6701  -6.7153  -6.5232  -6.5186   5.5078   5.5094   5.5290   7.0745
     7.1118   7.7196   7.7538   7.7665   7.7741   7.9369   8.7935   8.8439

          k = 0.0833 0.2475 0.2500 (  5278 PWs)   bands (ev):

   -63.2318 -63.2267 -63.2264 -63.2253 -30.3479 -30.3475 -30.3439 -30.3276
   -30.3192 -30.3183 -30.3158 -30.3138 -30.3109 -30.3104 -30.3004 -30.2983
    -7.5148  -6.6611  -6.6606  -6.5279   5.5656   5.5659   5.6628   6.5878
     7.0903   7.3946   7.3953   7.9088   7.9092   8.0239   8.5790   8.8761

          k = 0.0833 0.2458 0.4167 (  5285 PWs)   bands (ev):

   -63.2302 -63.2281 -63.2264 -63.2255 -30.3473 -30.3425 -30.3412 -30.3294
   -30.3272 -30.3249 -30.3124 -30.3120 -30.3086 -30.3058 -30.3036 -30.3014
    -7.2442  -6.9198  -6.5881  -6.5508   5.6540   5.7473   5.8380   6.3674
     6.4807   6.8944   7.8032   7.8901   8.0269   8.2096   8.2374   8.6485

          k = 0.0833 0.2542-0.4167 (  5277 PWs)   bands (ev):

   -63.2300 -63.2283 -63.2265 -63.2255 -30.3449 -30.3418 -30.3369 -30.3328
   -30.3312 -30.3250 -30.3125 -30.3124 -30.3082 -30.3074 -30.3061 -30.2973
    -7.2300  -6.9351  -6.6043  -6.5348   5.6398   5.7808   5.8323   6.3877
     6.4969   6.8838   7.7864   7.9378   7.9446   8.2302   8.2758   8.5883

          k = 0.0833 0.2525-0.2500 (  5287 PWs)   bands (ev):

   -63.2317 -63.2269 -63.2265 -63.2252 -30.3445 -30.3430 -30.3428 -30.3319
   -30.3209 -30.3201 -30.3191 -30.3135 -30.3130 -30.3100 -30.3009 -30.2942
    -7.5049  -6.6731  -6.6726  -6.5164   5.5685   5.5687   5.6820   6.6397
     7.1259   7.3858   7.3865   7.9226   7.9249   7.9253   8.5961   8.8060

          k = 0.0833 0.2508-0.0833 (  5273 PWs)   bands (ev):

   -63.2327 -63.2268 -63.2259 -63.2249 -30.3467 -30.3461 -30.3444 -30.3261
   -30.3244 -30.3164 -30.3161 -30.3144 -30.3134 -30.3100 -30.2983 -30.2953
    -7.6666  -6.7196  -6.5231  -6.5191   5.5121   5.5133   5.5327   7.1091
     7.1450   7.6781   7.7230   7.7689   7.7847   7.9404   8.7854   8.8136

          k = 0.0833 0.4158 0.0833 (  5267 PWs)   bands (ev):

   -63.2308 -63.2285 -63.2259 -63.2250 -30.3423 -30.3401 -30.3361 -30.3303
   -30.3296 -30.3199 -30.3175 -30.3152 -30.3090 -30.3076 -30.3039 -30.3024
    -7.3700  -7.0160  -6.5001  -6.4940   5.9003   5.9127   6.0488   6.5394
     6.5493   6.8267   7.5580   7.5907   8.0955   8.1862   8.4839   8.5074

          k = 0.0833 0.4142 0.2500 (  5285 PWs)   bands (ev):

   -63.2302 -63.2281 -63.2264 -63.2255 -30.3473 -30.3425 -30.3412 -30.3294
   -30.3272 -30.3249 -30.3124 -30.3120 -30.3086 -30.3058 -30.3036 -30.3014
    -7.2443  -6.9199  -6.5881  -6.5508   5.6540   5.7473   5.8380   6.3674
     6.4807   6.8943   7.8033   7.8902   8.0270   8.2097   8.2374   8.6484

          k = 0.0833 0.4125 0.4167 (  5287 PWs)   bands (ev):

   -63.2291 -63.2276 -63.2273 -63.2262 -30.3478 -30.3473 -30.3428 -30.3360
   -30.3248 -30.3189 -30.3180 -30.3114 -30.3072 -30.3019 -30.3015 -30.3013
    -7.0294  -6.7728  -6.7723  -6.6522   5.5609   5.6178   5.6182   5.8758
     6.8057   7.3183   7.3190   7.7687   8.2895   8.2900   8.3072   8.6216

          k = 0.0833 0.4208-0.4167 (  5282 PWs)   bands (ev):

   -63.2288 -63.2279 -63.2274 -63.2261 -30.3484 -30.3422 -30.3415 -30.3411
   -30.3255 -30.3186 -30.3178 -30.3117 -30.3060 -30.3054 -30.3031 -30.2973
    -7.0090  -6.7941  -6.7936  -6.6305   5.5867   5.6032   5.6036   5.8934
     6.8256   7.2961   7.2967   7.7948   8.2217   8.3580   8.3585   8.5480

          k = 0.0833 0.4192-0.2500 (  5277 PWs)   bands (ev):

   -63.2300 -63.2283 -63.2265 -63.2254 -30.3449 -30.3418 -30.3369 -30.3328
   -30.3312 -30.3250 -30.3125 -30.3124 -30.3082 -30.3074 -30.3060 -30.2973
    -7.2300  -6.9352  -6.6043  -6.5348   5.6398   5.7807   5.8323   6.3877
     6.4968   6.8837   7.7866   7.9380   7.9447   8.2303   8.2758   8.5883

          k = 0.0833 0.4175-0.0833 (  5268 PWs)   bands (ev):

   -63.2308 -63.2286 -63.2259 -63.2250 -30.3408 -30.3390 -30.3334 -30.3322
   -30.3312 -30.3229 -30.3171 -30.3148 -30.3103 -30.3084 -30.3032 -30.3007
    -7.3649  -7.0215  -6.5001  -6.4942   5.9015   5.9136   6.0480   6.5520
     6.5612   6.8389   7.5431   7.5747   8.0952   8.1914   8.4723   8.5006

          k = 0.2500 0.0825 0.0833 (  5272 PWs)   bands (ev):

   -63.2327 -63.2268 -63.2259 -63.2249 -30.3479 -30.3477 -30.3449 -30.3232
   -30.3227 -30.3167 -30.3160 -30.3154 -30.3136 -30.3076 -30.3001 -30.2956
    -7.6690  -6.7184  -6.5203  -6.5198   5.5097   5.5099   5.5283   7.1126
     7.1130   7.7190   7.7195   7.7228   7.7573   7.9926   8.7980   8.8345

          k = 0.2500 0.0808 0.2500 (  5274 PWs)   bands (ev):

   -63.2318 -63.2268 -63.2264 -63.2252 -30.3467 -30.3462 -30.3448 -30.3281
   -30.3186 -30.3175 -30.3170 -30.3131 -30.3126 -30.3117 -30.3019 -30.2958
    -7.5116  -6.6691  -6.6646  -6.5197   5.5595   5.5672   5.6741   6.6118
     7.0929   7.3684   7.3920   7.9136   7.9531   7.9713   8.6043   8.8443

          k = 0.2500 0.0792 0.4167 (  5282 PWs)   bands (ev):

   -63.2302 -63.2281 -63.2264 -63.2255 -30.3449 -30.3438 -30.3411 -30.3294
   -30.3288 -30.3251 -30.3113 -30.3109 -30.3096 -30.3071 -30.3056 -30.2990
    -7.2397  -6.9247  -6.5991  -6.5398   5.6342   5.7780   5.8392   6.3676
     6.4745   6.8945   7.7881   7.9276   7.9815   8.2354   8.2560   8.6173

          k = 0.2500 0.0875-0.4167 (  5277 PWs)   bands (ev):

   -63.2301 -63.2282 -63.2264 -63.2255 -30.3452 -30.3412 -30.3385 -30.3320
   -30.3311 -30.3253 -30.3138 -30.3102 -30.3096 -30.3055 -30.3049 -30.2990
    -7.2346  -6.9302  -6.5934  -6.5457   5.6594   5.7502   5.8311   6.3871
     6.5032   6.8834   7.8021   7.9008   7.9895   8.2054   8.2565   8.6187

          k = 0.2500 0.0858-0.2500 (  5284 PWs)   bands (ev):

   -63.2317 -63.2268 -63.2264 -63.2253 -30.3453 -30.3442 -30.3428 -30.3312
   -30.3209 -30.3202 -30.3192 -30.3119 -30.3113 -30.3108 -30.3004 -30.2958
    -7.5081  -6.6690  -6.6651  -6.5242   5.5673   5.5743   5.6710   6.6158
     7.1225   7.3891   7.4103   7.8839   7.9201   7.9749   8.5694   8.8397

          k = 0.2500 0.0842-0.0833 (  5267 PWs)   bands (ev):

   -63.2327 -63.2268 -63.2259 -63.2249 -30.3468 -30.3467 -30.3450 -30.3247
   -30.3244 -30.3172 -30.3160 -30.3153 -30.3119 -30.3089 -30.2984 -30.2961
    -7.6678  -6.7170  -6.5219  -6.5214   5.5115   5.5117   5.5329   7.1080
     7.1083   7.7231   7.7237   7.7807   7.8205   7.8847   8.7559   8.8483

          k = 0.2500 0.2492 0.0833 (  5276 PWs)   bands (ev):

   -63.2318 -63.2268 -63.2264 -63.2252 -30.3467 -30.3462 -30.3449 -30.3281
   -30.3186 -30.3175 -30.3170 -30.3131 -30.3126 -30.3117 -30.3019 -30.2958
    -7.5116  -6.6691  -6.6647  -6.5197   5.5596   5.5672   5.6742   6.6118
     7.0930   7.3682   7.3920   7.9138   7.9533   7.9712   8.6042   8.8443

          k = 0.2500 0.2475 0.2500 (  5276 PWs)   bands (ev):

   -63.2310 -63.2268 -63.2267 -63.2256 -30.3510 -30.3507 -30.3475 -30.3270
   -30.3175 -30.3175 -30.3164 -30.3117 -30.3099 -30.3094 -30.3004 -30.2974
    -7.3719  -6.6456  -6.6342  -6.6338   5.4144   5.4374   5.4376   6.4658
     7.2225   7.2313   7.2319   8.0727   8.0731   8.1270   8.7068   8.7496

          k = 0.2500 0.2458 0.4167 (  5277 PWs)   bands (ev):

   -63.2297 -63.2279 -63.2268 -63.2258 -30.3535 -30.3497 -30.3494 -30.3377
   -30.3184 -30.3177 -30.3094 -30.3075 -30.3067 -30.3051 -30.3031 -30.3006
    -7.1320  -6.8497  -6.6206  -6.6048   5.2655   5.2986   5.4798   5.8361
     7.2051   7.2172   7.9173   8.0988   8.1493   8.2602   8.4885   8.5221

          k = 0.2500 0.2542-0.4167 (  5280 PWs)   bands (ev):

   -63.2295 -63.2280 -63.2268 -63.2258 -30.3528 -30.3490 -30.3448 -30.3419
   -30.3197 -30.3191 -30.3102 -30.3085 -30.3062 -30.3054 -30.3025 -30.2987
    -7.1177  -6.8650  -6.6207  -6.6050   5.2717   5.3049   5.4603   5.8684
     7.2153   7.2276   7.9430   8.0780   8.1282   8.2745   8.4547   8.4983

          k = 0.2500 0.2525-0.2500 (  5276 PWs)   bands (ev):

   -63.2309 -63.2269 -63.2268 -63.2257 -30.3492 -30.3461 -30.3459 -30.3305
   -30.3214 -30.3211 -30.3201 -30.3097 -30.3092 -30.3079 -30.2992 -30.2963
    -7.3620  -6.6461  -6.6456  -6.6345   5.4282   5.4284   5.4512   6.5080
     7.2436   7.2442   7.2527   8.0292   8.0827   8.0831   8.6745   8.7163

          k = 0.2500 0.2508-0.0833 (  5285 PWs)   bands (ev):

   -63.2317 -63.2268 -63.2264 -63.2253 -30.3453 -30.3442 -30.3428 -30.3312
   -30.3209 -30.3202 -30.3192 -30.3119 -30.3113 -30.3108 -30.3004 -30.2958
    -7.5081  -6.6691  -6.6651  -6.5241   5.5673   5.5743   5.6711   6.6158
     7.1226   7.3891   7.4102   7.8840   7.9203   7.9747   8.5693   8.8397

          k = 0.2500 0.4158 0.0833 (  5281 PWs)   bands (ev):

   -63.2302 -63.2281 -63.2264 -63.2255 -30.3449 -30.3438 -30.3411 -30.3294
   -30.3288 -30.3251 -30.3113 -30.3109 -30.3096 -30.3070 -30.3056 -30.2990
    -7.2397  -6.9247  -6.5991  -6.5398   5.6342   5.7780   5.8393   6.3678
     6.4746   6.8944   7.7880   7.9277   7.9814   8.2353   8.2561   8.6173

          k = 0.2500 0.4142 0.2500 (  5277 PWs)   bands (ev):

   -63.2297 -63.2279 -63.2268 -63.2258 -30.3535 -30.3497 -30.3494 -30.3377
   -30.3184 -30.3177 -30.3094 -30.3075 -30.3067 -30.3051 -30.3031 -30.3006
    -7.1321  -6.8498  -6.6206  -6.6048   5.2655   5.2986   5.4798   5.8362
     7.2052   7.2172   7.9172   8.0988   8.1494   8.2603   8.4885   8.5221

          k = 0.2500 0.4125 0.4167 (  5278 PWs)   bands (ev):

   -63.2288 -63.2276 -63.2275 -63.2263 -30.3561 -30.3559 -30.3531 -30.3469
   -30.3125 -30.3109 -30.3102 -30.3064 -30.3039 -30.3022 -30.3019 -30.3013
    -6.9523  -6.7430  -6.7425  -6.6736   5.0390   5.1455   5.1456   5.3339
     7.5521   7.8297   7.8301   8.2356   8.3100   8.3104   8.3480   8.5782

          k = 0.2500 0.4208-0.4167 (  5276 PWs)   bands (ev):

   -63.2286 -63.2279 -63.2275 -63.2262 -30.3573 -30.3516 -30.3512 -30.3511
   -30.3145 -30.3097 -30.3091 -30.3057 -30.3056 -30.3048 -30.3023 -30.2981
    -6.9320  -6.7641  -6.7636  -6.6523   5.0738   5.1181   5.1182   5.3642
     7.5591   7.8318   7.8322   8.2450   8.2641   8.3704   8.3709   8.5031

          k = 0.2500 0.4192-0.2500 (  5282 PWs)   bands (ev):

   -63.2295 -63.2280 -63.2268 -63.2258 -30.3528 -30.3490 -30.3448 -30.3419
   -30.3197 -30.3191 -30.3102 -30.3085 -30.3062 -30.3054 -30.3025 -30.2987
    -7.1178  -6.8651  -6.6207  -6.6050   5.2717   5.3049   5.4604   5.8685
     7.2152   7.2277   7.9429   8.0780   8.1282   8.2746   8.4546   8.4984

          k = 0.2500 0.4175-0.0833 (  5275 PWs)   bands (ev):

   -63.2301 -63.2282 -63.2264 -63.2255 -30.3452 -30.3412 -30.3385 -30.3320
   -30.3312 -30.3253 -30.3138 -30.3103 -30.3096 -30.3054 -30.3049 -30.2990
    -7.2346  -6.9303  -6.5934  -6.5457   5.6594   5.7502   5.8312   6.3873
     6.5033   6.8833   7.8021   7.9009   7.9895   8.2054   8.2565   8.6187

          k = 0.4167 0.0825 0.0833 (  5273 PWs)   bands (ev):

   -63.2308 -63.2286 -63.2258 -63.2250 -30.3429 -30.3426 -30.3343 -30.3284
   -30.3279 -30.3208 -30.3172 -30.3163 -30.3106 -30.3074 -30.3049 -30.3007
    -7.3682  -7.0196  -6.4963  -6.4958   5.9060   5.9062   6.0434   6.5534
     6.5537   6.8250   7.5632   7.5639   8.0532   8.2386   8.4470   8.5454

          k = 0.4167 0.0808 0.2500 (  5270 PWs)   bands (ev):

   -63.2302 -63.2282 -63.2264 -63.2255 -30.3464 -30.3455 -30.3392 -30.3294
   -30.3279 -30.3229 -30.3128 -30.3111 -30.3102 -30.3069 -30.3054 -30.2988
    -7.2390  -6.9295  -6.5939  -6.5405   5.6501   5.7701   5.8234   6.3634
     6.4828   6.8866   7.7916   7.9106   7.9830   8.2309   8.2778   8.6274

          k = 0.4167 0.0792 0.4167 (  5288 PWs)   bands (ev):

   -63.2290 -63.2278 -63.2273 -63.2261 -30.3471 -30.3458 -30.3436 -30.3381
   -30.3241 -30.3192 -30.3172 -30.3125 -30.3051 -30.3039 -30.3033 -30.2991
    -7.0218  -6.7860  -6.7804  -6.6384   5.5855   5.5970   5.6190   5.8720
     6.8020   7.2968   7.3209   7.7975   8.2615   8.3220   8.3305   8.5873

          k = 0.4167 0.0875-0.4167 (  5287 PWs)   bands (ev):

   -63.2289 -63.2278 -63.2274 -63.2261 -30.3453 -30.3442 -30.3432 -30.3401
   -30.3266 -30.3199 -30.3181 -30.3111 -30.3049 -30.3035 -30.3029 -30.2992
    -7.0166  -6.7860  -6.7806  -6.6441   5.5620   5.6025   5.6241   5.8969
     6.8297   7.2943   7.3187   7.7666   8.2667   8.3172   8.3252   8.5817

          k = 0.4167 0.0858-0.2500 (  5286 PWs)   bands (ev):

   -63.2301 -63.2282 -63.2265 -63.2255 -30.3430 -30.3405 -30.3400 -30.3332
   -30.3306 -30.3269 -30.3129 -30.3100 -30.3094 -30.3059 -30.3049 -30.2990
    -7.2354  -6.9257  -6.5982  -6.5448   5.6440   5.7581   5.8462   6.3909
     6.4950   6.8917   7.7949   7.9169   7.9881   8.2069   8.2391   8.6120

          k = 0.4167 0.0842-0.0833 (  5277 PWs)   bands (ev):

   -63.2308 -63.2286 -63.2259 -63.2250 -30.3400 -30.3398 -30.3346 -30.3319
   -30.3318 -30.3214 -30.3162 -30.3155 -30.3110 -30.3069 -30.3040 -30.3011
    -7.3669  -7.0182  -6.4980  -6.4975   5.9082   5.9083   6.0526   6.5477
     6.5481   6.8398   7.5685   7.5692   8.1383   8.1387   8.4561   8.5162

          k = 0.4167 0.2492 0.0833 (  5270 PWs)   bands (ev):

   -63.2302 -63.2282 -63.2264 -63.2255 -30.3464 -30.3455 -30.3392 -30.3294
   -30.3279 -30.3228 -30.3128 -30.3111 -30.3102 -30.3069 -30.3054 -30.2989
    -7.2390  -6.9295  -6.5940  -6.5405   5.6502   5.7701   5.8235   6.3635
     6.4829   6.8866   7.7915   7.9106   7.9828   8.2307   8.2779   8.6274

          k = 0.4167 0.2475 0.2500 (  5270 PWs)   bands (ev):

   -63.2297 -63.2280 -63.2267 -63.2258 -30.3537 -30.3535 -30.3460 -30.3385
   -30.3161 -30.3156 -30.3091 -30.3085 -30.3080 -30.3066 -30.3039 -30.2993
    -7.1300  -6.8628  -6.6071  -6.6066   5.2945   5.2946   5.4479   5.8294
     7.2040   7.2046   7.9221   8.1081   8.1085   8.3129   8.4786   8.5403

          k = 0.4167 0.2458 0.4167 (  5275 PWs)   bands (ev):

   -63.2288 -63.2278 -63.2274 -63.2262 -30.3573 -30.3557 -30.3520 -30.3475
   -30.3124 -30.3106 -30.3080 -30.3063 -30.3044 -30.3041 -30.3034 -30.2995
    -6.9494  -6.7608  -6.7456  -6.6551   5.0721   5.1109   5.1463   5.3292
     7.5340   7.8070   7.8462   8.2679   8.2986   8.3373   8.3632   8.5486

          k = 0.4167 0.2542-0.4167 (  5280 PWs)   bands (ev):

   -63.2286 -63.2278 -63.2275 -63.2263 -30.3552 -30.3531 -30.3515 -30.3510
   -30.3153 -30.3122 -30.3100 -30.3042 -30.3039 -30.3028 -30.3023 -30.2998
    -6.9349  -6.7609  -6.7459  -6.6706   5.0408   5.1175   5.1529   5.3690
     7.5775   7.8149   7.8561   8.2119   8.3130   8.3182   8.3423   8.5333

          k = 0.4167 0.2525-0.2500 (  5280 PWs)   bands (ev):

   -63.2295 -63.2279 -63.2269 -63.2259 -30.3489 -30.3488 -30.3481 -30.3412
   -30.3217 -30.3211 -30.3095 -30.3071 -30.3065 -30.3042 -30.3018 -30.2999
    -7.1199  -6.8523  -6.6188  -6.6183   5.2758   5.2758   5.4921   5.8751
     7.2289   7.2294   7.9383   8.1178   8.1182   8.2216   8.4573   8.4873

          k = 0.4167 0.2508-0.0833 (  5286 PWs)   bands (ev):

   -63.2301 -63.2282 -63.2265 -63.2255 -30.3431 -30.3405 -30.3400 -30.3332
   -30.3306 -30.3269 -30.3129 -30.3100 -30.3094 -30.3058 -30.3049 -30.2990
    -7.2354  -6.9258  -6.5983  -6.5448   5.6440   5.7581   5.8463   6.3910
     6.4951   6.8918   7.7947   7.9169   7.9880   8.2068   8.2392   8.6120

          k = 0.4167 0.4158 0.0833 (  5288 PWs)   bands (ev):

   -63.2290 -63.2278 -63.2273 -63.2261 -30.3471 -30.3458 -30.3436 -30.3382
   -30.3240 -30.3191 -30.3172 -30.3125 -30.3051 -30.3039 -30.3033 -30.2991
    -7.0218  -6.7860  -6.7804  -6.6384   5.5856   5.5971   5.6191   5.8721
     6.8021   7.2968   7.3209   7.7975   8.2614   8.3220   8.3305   8.5873

          k = 0.4167 0.4142 0.2500 (  5274 PWs)   bands (ev):

   -63.2288 -63.2278 -63.2274 -63.2262 -30.3573 -30.3557 -30.3520 -30.3475
   -30.3123 -30.3106 -30.3080 -30.3063 -30.3044 -30.3041 -30.3035 -30.2995
    -6.9494  -6.7608  -6.7456  -6.6551   5.0722   5.1110   5.1463   5.3292
     7.5341   7.8070   7.8462   8.2680   8.2985   8.3372   8.3631   8.5486

          k = 0.4167 0.4125 0.4167 (  5285 PWs)   bands (ev):

   -63.2284 -63.2278 -63.2276 -63.2264 -30.3623 -30.3622 -30.3581 -30.3557
   -30.3053 -30.3049 -30.3045 -30.3034 -30.3033 -30.3021 -30.3016 -30.3002
    -6.8363  -6.7333  -6.7127  -6.7123   4.7687   4.8049   4.8049   4.8828
     8.1752   8.1756   8.2031   8.3697   8.3700   8.4196   8.4651   8.5039

          k = 0.4167 0.4208-0.4167 (  5305 PWs)   bands (ev):

   -63.2281 -63.2279 -63.2277 -63.2264 -30.3620 -30.3598 -30.3579 -30.3579
   -30.3068 -30.3064 -30.3055 -30.3026 -30.3024 -30.3018 -30.3010 -30.2993
    -6.8160  -6.7336  -6.7331  -6.7126   4.7712   4.7712   4.8074   4.9202
     8.2016   8.2275   8.2279   8.3386   8.3899   8.3903   8.4261   8.4638

          k = 0.4167 0.4192-0.2500 (  5280 PWs)   bands (ev):

   -63.2286 -63.2278 -63.2275 -63.2263 -30.3552 -30.3531 -30.3515 -30.3510
   -30.3153 -30.3122 -30.3100 -30.3042 -30.3039 -30.3028 -30.3023 -30.2998
    -6.9349  -6.7609  -6.7459  -6.6706   5.0408   5.1175   5.1529   5.3690
     7.5776   7.8150   7.8561   8.2119   8.3129   8.3182   8.3422   8.5332

          k = 0.4167 0.4175-0.0833 (  5286 PWs)   bands (ev):

   -63.2289 -63.2278 -63.2274 -63.2261 -30.3453 -30.3442 -30.3432 -30.3401
   -30.3266 -30.3199 -30.3180 -30.3111 -30.3049 -30.3035 -30.3030 -30.2992
    -7.0166  -6.7860  -6.7806  -6.6442   5.5621   5.6026   5.6242   5.8971
     6.8297   7.2943   7.3188   7.7665   8.2666   8.3172   8.3251   8.5817

     highest occupied level (ev):     9.0129

!    total energy              =    -732.45668300 Ry
     Harris-Foulkes estimate   =    -732.45668300 Ry
     estimated scf accuracy    <          4.0E-10 Ry

     total all-electron energy =     -1167.499668 Ry

     The total energy is the sum of the following terms:

     one-electron contribution =    -371.05220281 Ry
     hartree contribution      =      98.08129489 Ry
     xc contribution           =     -78.00177021 Ry
     ewald contribution        =    -371.97069681 Ry
     one-center paw contrib.   =      -9.51330805 Ry

     convergence has been achieved in  11 iterations

     Forces acting on atoms (Ry/au):

     atom    1 type  1   force =     0.00000000    0.00000000    0.00000000
     atom    2 type  1   force =     0.00000000    0.00000000    0.00000000
     atom    3 type  1   force =     0.00000000    0.00000000    0.00000000
     atom    4 type  1   force =     0.00000000    0.00000000    0.00000000
     atom    5 type  2   force =     0.00000000    0.00000000    0.00000000
     atom    6 type  2   force =     0.00000000    0.00000000    0.00000000
     atom    7 type  2   force =     0.00000000    0.00000000    0.00000000
     atom    8 type  2   force =     0.00000000    0.00000000    0.00000000

     Total force =     0.000000     Total SCF correction =     0.000000


     entering subroutine stress ...

          total   stress  (Ry/bohr**3)                   (kbar)     P=    0.19
   0.00000047   0.00000000   0.00000000          0.07      0.00      0.00
   0.00000000   0.00000228  -0.00009174          0.00      0.33    -13.50
   0.00000000  -0.00009174   0.00000111          0.00    -13.50      0.16


     BFGS Geometry Optimization

     bfgs converged in   1 scf cycles and   0 bfgs steps
     (criteria: energy <  1.0E-04, force <  1.0E-07)

     End of BFGS Geometry Optimization

     Final energy   =    -732.4566829988 Ry
Begin final coordinates

ATOMIC_POSITIONS (crystal)
Mg       0.000000000   0.000000000   0.000000000
Mg       0.000000000   0.500000000   0.500000000
Mg       0.500000000   0.000000000   0.500000000
Mg       0.500000000   0.500000000   0.000000000
O        0.500000000   0.500000000   0.500000000
O        0.500000000   0.000000000   0.000000000
O        0.000000000   0.500000000   0.000000000
O        0.000000000   0.000000000   0.500000000
End final coordinates



     Writing output data file pwscf.save
 
     init_run     :      9.77s CPU     11.76s WALL (       1 calls)
     electrons    :    121.91s CPU    166.66s WALL (       1 calls)
     forces       :      0.85s CPU      0.88s WALL (       1 calls)
     stress       :      2.10s CPU      2.20s WALL (       1 calls)

     Called by init_run:
     wfcinit      :      8.63s CPU     10.59s WALL (       1 calls)
     potinit      :      0.38s CPU      0.39s WALL (       1 calls)

     Called by electrons:
     c_bands      :     99.46s CPU    137.90s WALL (      11 calls)
     sum_band     :     20.58s CPU     26.68s WALL (      11 calls)
     v_of_rho     :      0.24s CPU      0.30s WALL (      12 calls)
     newd         :      0.51s CPU      0.57s WALL (      12 calls)
     mix_rho      :      0.04s CPU      0.06s WALL (      11 calls)

     Called by c_bands:
     init_us_2    :      0.91s CPU      0.99s WALL (    1350 calls)
     cegterg      :     96.45s CPU    134.80s WALL (     594 calls)

     Called by *egterg:
     h_psi        :     90.31s CPU    121.27s WALL (    2103 calls)
     s_psi        :      1.45s CPU      1.47s WALL (    2103 calls)
     g_psi        :      0.56s CPU      0.55s WALL (    1455 calls)
     cdiaghg      :      5.42s CPU     12.07s WALL (    2049 calls)

     Called by h_psi:
     add_vuspsi   :      1.52s CPU      1.55s WALL (    2103 calls)

     General routines
     calbec       :      2.36s CPU      3.01s WALL (    2805 calls)
     fft          :      0.41s CPU      0.47s WALL (     180 calls)
     fftw         :    103.72s CPU    136.88s WALL (  123542 calls)
     davcio       :      0.00s CPU      0.02s WALL (      54 calls)
 
     Parallel routines
     fft_scatter  :     82.68s CPU     80.29s WALL (  123722 calls)

     PAW routines
     PAW_pot      :      1.21s CPU      1.28s WALL (      12 calls)
     PAW_symme    :      0.00s CPU      0.00s WALL (      23 calls)
 
     PWSCF        :  2m15.27s CPU     3m 3.39s WALL

 
   This run was terminated on:   9:36: 3   2Mar2017            

=------------------------------------------------------------------------------=
   JOB DONE.
=------------------------------------------------------------------------------=
