calculator: pwscf
nqpoint: 153    
npath: 3      
segment_nqpoint:
- 51
- 51
- 51
reciprocal_lattice:
- [   0.12328138,   0.00000000,   0.00000000 ] # a*
- [   0.00000000,   0.12328138,   0.00000000 ] # b*
- [   0.00000000,   0.00000000,   0.12328138 ] # c*
natom: 8      
lattice:
- [     8.111524834744317,     0.000000000000000,     0.000000000000000 ] # a
- [     0.000000000000000,     8.111524834744317,     0.000000000000000 ] # b
- [     0.000000000000000,     0.000000000000000,     8.111524834744317 ] # c
points:
- symbol: Mg # 1
  coordinates: [  0.000000000000000,  0.000000000000000,  0.000000000000000 ]
  mass: 24.305000
- symbol: Mg # 2
  coordinates: [  0.500000000000000,  0.500000000000000,  0.000000000000000 ]
  mass: 24.305000
- symbol: Mg # 3
  coordinates: [  0.000000000000000,  0.500000000000000,  0.500000000000000 ]
  mass: 24.305000
- symbol: Mg # 4
  coordinates: [  0.500000000000000,  0.000000000000000,  0.500000000000000 ]
  mass: 24.305000
- symbol: O  # 5
  coordinates: [  0.500000000000000,  0.000000000000000,  0.000000000000000 ]
  mass: 15.999400
- symbol: O  # 6
  coordinates: [  0.000000000000000,  0.500000000000000,  0.000000000000000 ]
  mass: 15.999400
- symbol: O  # 7
  coordinates: [  0.000000000000000,  0.000000000000000,  0.500000000000000 ]
  mass: 15.999400
- symbol: O  # 8
  coordinates: [  0.500000000000000,  0.500000000000000,  0.500000000000000 ]
  mass: 15.999400
supercell_matrix:
- [    4,    0,    0 ]
- [    0,    4,    0 ]
- [    0,    0,    4 ]

phonon:
- q-position: [    0.5000000,    0.5000000,    0.5000000 ]
  distance:    0.0000000
  band:
  - # 1
    frequency:    7.0759877101
  - # 2
    frequency:    7.0759877101
  - # 3
    frequency:    7.0759877101
  - # 4
    frequency:    7.0759877101
  - # 5
    frequency:    7.0759877101
  - # 6
    frequency:    7.0759877101
  - # 7
    frequency:    7.0759877101
  - # 8
    frequency:    7.0759877101
  - # 9
    frequency:   10.3667102503
  - # 10
    frequency:   10.3667102503
  - # 11
    frequency:   10.3667102503
  - # 12
    frequency:   10.3667102503
  - # 13
    frequency:   10.3667102503
  - # 14
    frequency:   10.3667102503
  - # 15
    frequency:   10.3667102503
  - # 16
    frequency:   10.3667102503
  - # 17
    frequency:   15.3654320200
  - # 18
    frequency:   15.3654320200
  - # 19
    frequency:   15.3654320200
  - # 20
    frequency:   15.3654320200
  - # 21
    frequency:   16.2371551444
  - # 22
    frequency:   16.2371551444
  - # 23
    frequency:   16.2371551444
  - # 24
    frequency:   16.2371551444

- q-position: [    0.4900000,    0.4900000,    0.4900000 ]
  distance:    0.0021353
  band:
  - # 1
    frequency:    7.0671928901
  - # 2
    frequency:    7.0671928901
  - # 3
    frequency:    7.0716554287
  - # 4
    frequency:    7.0716554287
  - # 5
    frequency:    7.0716554287
  - # 6
    frequency:    7.0806459657
  - # 7
    frequency:    7.0806459657
  - # 8
    frequency:    7.0806459657
  - # 9
    frequency:   10.3710851759
  - # 10
    frequency:   10.3710851759
  - # 11
    frequency:   10.3710851759
  - # 12
    frequency:   10.3734167376
  - # 13
    frequency:   10.3734167376
  - # 14
    frequency:   10.3734167376
  - # 15
    frequency:   10.3744164186
  - # 16
    frequency:   10.3744164186
  - # 17
    frequency:   15.3298087045
  - # 18
    frequency:   15.3571451740
  - # 19
    frequency:   15.3571451740
  - # 20
    frequency:   15.3571451740
  - # 21
    frequency:   16.2396636260
  - # 22
    frequency:   16.2396636260
  - # 23
    frequency:   16.2396636260
  - # 24
    frequency:   16.2625423282

- q-position: [    0.4800000,    0.4800000,    0.4800000 ]
  distance:    0.0042706
  band:
  - # 1
    frequency:    7.0410489483
  - # 2
    frequency:    7.0410489483
  - # 3
    frequency:    7.0587918396
  - # 4
    frequency:    7.0587918396
  - # 5
    frequency:    7.0587918396
  - # 6
    frequency:    7.0945834781
  - # 7
    frequency:    7.0945834781
  - # 8
    frequency:    7.0945834781
  - # 9
    frequency:   10.3841205489
  - # 10
    frequency:   10.3841205489
  - # 11
    frequency:   10.3841205489
  - # 12
    frequency:   10.3934499024
  - # 13
    frequency:   10.3934499024
  - # 14
    frequency:   10.3934499024
  - # 15
    frequency:   10.3972598877
  - # 16
    frequency:   10.3972598877
  - # 17
    frequency:   15.2331584069
  - # 18
    frequency:   15.3326192838
  - # 19
    frequency:   15.3326192838
  - # 20
    frequency:   15.3326192838
  - # 21
    frequency:   16.2468702607
  - # 22
    frequency:   16.2468702607
  - # 23
    frequency:   16.2468702607
  - # 24
    frequency:   16.3284763366

- q-position: [    0.4700000,    0.4700000,    0.4700000 ]
  distance:    0.0064059
  band:
  - # 1
    frequency:    6.9982423727
  - # 2
    frequency:    6.9982423727
  - # 3
    frequency:    7.0377878222
  - # 4
    frequency:    7.0377878222
  - # 5
    frequency:    7.0377878222
  - # 6
    frequency:    7.1176888085
  - # 7
    frequency:    7.1176888085
  - # 8
    frequency:    7.1176888085
  - # 9
    frequency:   10.4055560947
  - # 10
    frequency:   10.4055560947
  - # 11
    frequency:   10.4055560947
  - # 12
    frequency:   10.4265532187
  - # 13
    frequency:   10.4265532187
  - # 14
    frequency:   10.4265532187
  - # 15
    frequency:   10.4344513153
  - # 16
    frequency:   10.4344513153
  - # 17
    frequency:   15.0942511049
  - # 18
    frequency:   15.2927543977
  - # 19
    frequency:   15.2927543977
  - # 20
    frequency:   15.2927543977
  - # 21
    frequency:   16.2579224733
  - # 22
    frequency:   16.2579224733
  - # 23
    frequency:   16.2579224733
  - # 24
    frequency:   16.4161638160

- q-position: [    0.4600000,    0.4600000,    0.4600000 ]
  distance:    0.0085412
  band:
  - # 1
    frequency:    6.9398116550
  - # 2
    frequency:    6.9398116550
  - # 3
    frequency:    7.0092668204
  - # 4
    frequency:    7.0092668204
  - # 5
    frequency:    7.0092668204
  - # 6
    frequency:    7.1497773049
  - # 7
    frequency:    7.1497773049
  - # 8
    frequency:    7.1497773049
  - # 9
    frequency:   10.4349828879
  - # 10
    frequency:   10.4349828879
  - # 11
    frequency:   10.4349828879
  - # 12
    frequency:   10.4723068701
  - # 13
    frequency:   10.4723068701
  - # 14
    frequency:   10.4723068701
  - # 15
    frequency:   10.4847831001
  - # 16
    frequency:   10.4847831001
  - # 17
    frequency:   14.9271086312
  - # 18
    frequency:   15.2387727342
  - # 19
    frequency:   15.2387727342
  - # 20
    frequency:   15.2387727342
  - # 21
    frequency:   16.2716770532
  - # 22
    frequency:   16.2716770532
  - # 23
    frequency:   16.2716770532
  - # 24
    frequency:   16.5115449908

- q-position: [    0.4500000,    0.4500000,    0.4500000 ]
  distance:    0.0106765
  band:
  - # 1
    frequency:    6.8670221436
  - # 2
    frequency:    6.8670221436
  - # 3
    frequency:    6.9740478573
  - # 4
    frequency:    6.9740478573
  - # 5
    frequency:    6.9740478573
  - # 6
    frequency:    7.1905927020
  - # 7
    frequency:    7.1905927020
  - # 8
    frequency:    7.1905927020
  - # 9
    frequency:   10.4718756143
  - # 10
    frequency:   10.4718756143
  - # 11
    frequency:   10.4718756143
  - # 12
    frequency:   10.5301388058
  - # 13
    frequency:   10.5301388058
  - # 14
    frequency:   10.5301388058
  - # 15
    frequency:   10.5467579420
  - # 16
    frequency:   10.5467579420
  - # 17
    frequency:   14.7397710759
  - # 18
    frequency:   15.1719713303
  - # 19
    frequency:   15.1719713303
  - # 20
    frequency:   15.1719713303
  - # 21
    frequency:   16.2869474001
  - # 22
    frequency:   16.2869474001
  - # 23
    frequency:   16.2869474001
  - # 24
    frequency:   16.6065287761

- q-position: [    0.4400000,    0.4400000,    0.4400000 ]
  distance:    0.0128118
  band:
  - # 1
    frequency:    6.7812405692
  - # 2
    frequency:    6.7812405692
  - # 3
    frequency:    6.9331021850
  - # 4
    frequency:    6.9331021850
  - # 5
    frequency:    6.9331021850
  - # 6
    frequency:    7.2398093120
  - # 7
    frequency:    7.2398093120
  - # 8
    frequency:    7.2398093120
  - # 9
    frequency:   10.5156293355
  - # 10
    frequency:   10.5156293355
  - # 11
    frequency:   10.5156293355
  - # 12
    frequency:   10.5993392144
  - # 13
    frequency:   10.5993392144
  - # 14
    frequency:   10.5993392144
  - # 15
    frequency:   10.6187189828
  - # 16
    frequency:   10.6187189828
  - # 17
    frequency:   14.5366674160
  - # 18
    frequency:   15.0935592964
  - # 19
    frequency:   15.0935592964
  - # 20
    frequency:   15.0935592964
  - # 21
    frequency:   16.3026662510
  - # 22
    frequency:   16.3026662510
  - # 23
    frequency:   16.3026662510
  - # 24
    frequency:   16.6966242462

- q-position: [    0.4300000,    0.4300000,    0.4300000 ]
  distance:    0.0149471
  band:
  - # 1
    frequency:    6.6838316824
  - # 2
    frequency:    6.6838316824
  - # 3
    frequency:    6.8875089172
  - # 4
    frequency:    6.8875089172
  - # 5
    frequency:    6.8875089172
  - # 6
    frequency:    7.2970347352
  - # 7
    frequency:    7.2970347352
  - # 8
    frequency:    7.2970347352
  - # 9
    frequency:   10.5655954438
  - # 10
    frequency:   10.5655954438
  - # 11
    frequency:   10.5655954438
  - # 12
    frequency:   10.6790775456
  - # 13
    frequency:   10.6790775456
  - # 14
    frequency:   10.6790775456
  - # 15
    frequency:   10.6989589811
  - # 16
    frequency:   10.6989589811
  - # 17
    frequency:   14.3203464655
  - # 18
    frequency:   15.0045903126
  - # 19
    frequency:   15.0045903126
  - # 20
    frequency:   15.0045903126
  - # 21
    frequency:   16.3179533870
  - # 22
    frequency:   16.3179533870
  - # 23
    frequency:   16.3179533870
  - # 24
    frequency:   16.7792123464

- q-position: [    0.4200000,    0.4200000,    0.4200000 ]
  distance:    0.0170824
  band:
  - # 1
    frequency:    6.5760867675
  - # 2
    frequency:    6.5760867675
  - # 3
    frequency:    6.8384136720
  - # 4
    frequency:    6.8384136720
  - # 5
    frequency:    6.8384136720
  - # 6
    frequency:    7.3618129703
  - # 7
    frequency:    7.3618129703
  - # 8
    frequency:    7.3618129703
  - # 9
    frequency:   10.6211128352
  - # 10
    frequency:   10.6211128352
  - # 11
    frequency:   10.6211128352
  - # 12
    frequency:   10.7684211256
  - # 13
    frequency:   10.7684211256
  - # 14
    frequency:   10.7684211256
  - # 15
    frequency:   10.7857986295
  - # 16
    frequency:   10.7857986295
  - # 17
    frequency:   14.0923833124
  - # 18
    frequency:   14.9059597886
  - # 19
    frequency:   14.9059597886
  - # 20
    frequency:   14.9059597886
  - # 21
    frequency:   16.3321190762
  - # 22
    frequency:   16.3321190762
  - # 23
    frequency:   16.3321190762
  - # 24
    frequency:   16.8526426538

- q-position: [    0.4100000,    0.4100000,    0.4100000 ]
  distance:    0.0192177
  band:
  - # 1
    frequency:    6.4591833370
  - # 2
    frequency:    6.4591833370
  - # 3
    frequency:    6.7869924958
  - # 4
    frequency:    6.7869924958
  - # 5
    frequency:    6.7869924958
  - # 6
    frequency:    7.4336277590
  - # 7
    frequency:    7.4336277590
  - # 8
    frequency:    7.4336277590
  - # 9
    frequency:   10.6815321164
  - # 10
    frequency:   10.6815321164
  - # 11
    frequency:   10.6815321164
  - # 12
    frequency:   10.8663543990
  - # 13
    frequency:   10.8663543990
  - # 14
    frequency:   10.8663543990
  - # 15
    frequency:   10.8776345603
  - # 16
    frequency:   10.8776345603
  - # 17
    frequency:   13.8538315654
  - # 18
    frequency:   14.7984331460
  - # 19
    frequency:   14.7984331460
  - # 20
    frequency:   14.7984331460
  - # 21
    frequency:   16.3446370208
  - # 22
    frequency:   16.3446370208
  - # 23
    frequency:   16.3446370208
  - # 24
    frequency:   16.9157848336

- q-position: [    0.4000000,    0.4000000,    0.4000000 ]
  distance:    0.0213530
  band:
  - # 1
    frequency:    6.3341696302
  - # 2
    frequency:    6.3341696302
  - # 3
    frequency:    6.7344217424
  - # 4
    frequency:    6.7344217424
  - # 5
    frequency:    6.7344217424
  - # 6
    frequency:    7.5119059457
  - # 7
    frequency:    7.5119059457
  - # 8
    frequency:    7.5119059457
  - # 9
    frequency:   10.7462322980
  - # 10
    frequency:   10.7462322980
  - # 11
    frequency:   10.7462322980
  - # 12
    frequency:   10.9717978815
  - # 13
    frequency:   10.9717978815
  - # 14
    frequency:   10.9717978815
  - # 15
    frequency:   10.9729632598
  - # 16
    frequency:   10.9729632598
  - # 17
    frequency:   13.6054546283
  - # 18
    frequency:   14.6826834018
  - # 19
    frequency:   14.6826834018
  - # 20
    frequency:   14.6826834018
  - # 21
    frequency:   16.3551089192
  - # 22
    frequency:   16.3551089192
  - # 23
    frequency:   16.3551089192
  - # 24
    frequency:   16.9678015399

- q-position: [    0.3900000,    0.3900000,    0.3900000 ]
  distance:    0.0234883
  band:
  - # 1
    frequency:    6.2019660263
  - # 2
    frequency:    6.2019660263
  - # 3
    frequency:    6.6818534649
  - # 4
    frequency:    6.6818534649
  - # 5
    frequency:    6.6818534649
  - # 6
    frequency:    7.5960205898
  - # 7
    frequency:    7.5960205898
  - # 8
    frequency:    7.5960205898
  - # 9
    frequency:   10.8146305988
  - # 10
    frequency:   10.8146305988
  - # 11
    frequency:   10.8146305988
  - # 12
    frequency:   11.0703886141
  - # 13
    frequency:   11.0703886141
  - # 14
    frequency:   11.0836259735
  - # 15
    frequency:   11.0836259735
  - # 16
    frequency:   11.0836259735
  - # 17
    frequency:   13.3478493068
  - # 18
    frequency:   14.5593275691
  - # 19
    frequency:   14.5593275691
  - # 20
    frequency:   14.5593275691
  - # 21
    frequency:   16.3632315018
  - # 22
    frequency:   16.3632315018
  - # 23
    frequency:   16.3632315018
  - # 24
    frequency:   17.0080294177

- q-position: [    0.3800000,    0.3800000,    0.3800000 ]
  distance:    0.0256236
  band:
  - # 1
    frequency:    6.0633763826
  - # 2
    frequency:    6.0633763826
  - # 3
    frequency:    6.6303953045
  - # 4
    frequency:    6.6303953045
  - # 5
    frequency:    6.6303953045
  - # 6
    frequency:    7.6852935349
  - # 7
    frequency:    7.6852935349
  - # 8
    frequency:    7.6852935349
  - # 9
    frequency:   10.8861866241
  - # 10
    frequency:   10.8861866241
  - # 11
    frequency:   10.8861866241
  - # 12
    frequency:   11.1686199085
  - # 13
    frequency:   11.1686199085
  - # 14
    frequency:   11.2006828458
  - # 15
    frequency:   11.2006828458
  - # 16
    frequency:   11.2006828458
  - # 17
    frequency:   13.0815149838
  - # 18
    frequency:   14.4289584170
  - # 19
    frequency:   14.4289584170
  - # 20
    frequency:   14.4289584170
  - # 21
    frequency:   16.3687699966
  - # 22
    frequency:   16.3687699966
  - # 23
    frequency:   16.3687699966
  - # 24
    frequency:   17.0359149326

- q-position: [    0.3700000,    0.3700000,    0.3700000 ]
  distance:    0.0277589
  band:
  - # 1
    frequency:    5.9191040919
  - # 2
    frequency:    5.9191040919
  - # 3
    frequency:    6.5810937328
  - # 4
    frequency:    6.5810937328
  - # 5
    frequency:    6.5810937328
  - # 6
    frequency:    7.7789971076
  - # 7
    frequency:    7.7789971076
  - # 8
    frequency:    7.7789971076
  - # 9
    frequency:   10.9604023867
  - # 10
    frequency:   10.9604023867
  - # 11
    frequency:   10.9604023867
  - # 12
    frequency:   11.2664653225
  - # 13
    frequency:   11.2664653225
  - # 14
    frequency:   11.3217955952
  - # 15
    frequency:   11.3217955952
  - # 16
    frequency:   11.3217955952
  - # 17
    frequency:   12.8068939516
  - # 18
    frequency:   14.2921716678
  - # 19
    frequency:   14.2921716678
  - # 20
    frequency:   14.2921716678
  - # 21
    frequency:   16.3715386418
  - # 22
    frequency:   16.3715386418
  - # 23
    frequency:   16.3715386418
  - # 24
    frequency:   17.0509793979

- q-position: [    0.3600000,    0.3600000,    0.3600000 ]
  distance:    0.0298941
  band:
  - # 1
    frequency:    5.7697694193
  - # 2
    frequency:    5.7697694193
  - # 3
    frequency:    6.5349196642
  - # 4
    frequency:    6.5349196642
  - # 5
    frequency:    6.5349196642
  - # 6
    frequency:    7.8763545991
  - # 7
    frequency:    7.8763545991
  - # 8
    frequency:    7.8763545991
  - # 9
    frequency:   11.0368195630
  - # 10
    frequency:   11.0368195630
  - # 11
    frequency:   11.0368195630
  - # 12
    frequency:   11.3628242009
  - # 13
    frequency:   11.3628242009
  - # 14
    frequency:   11.4457836950
  - # 15
    frequency:   11.4457836950
  - # 16
    frequency:   11.4457836950
  - # 17
    frequency:   12.5243957018
  - # 18
    frequency:   14.1495903694
  - # 19
    frequency:   14.1495903694
  - # 20
    frequency:   14.1495903694
  - # 21
    frequency:   16.3713875573
  - # 22
    frequency:   16.3713875573
  - # 23
    frequency:   16.3713875573
  - # 24
    frequency:   17.0528003607

- q-position: [    0.3500000,    0.3500000,    0.3500000 ]
  distance:    0.0320294
  band:
  - # 1
    frequency:    5.6159260777
  - # 2
    frequency:    5.6159260777
  - # 3
    frequency:    6.4927557612
  - # 4
    frequency:    6.4927557612
  - # 5
    frequency:    6.4927557612
  - # 6
    frequency:    7.9765391570
  - # 7
    frequency:    7.9765391570
  - # 8
    frequency:    7.9765391570
  - # 9
    frequency:   11.1150151588
  - # 10
    frequency:   11.1150151588
  - # 11
    frequency:   11.1150151588
  - # 12
    frequency:   11.4566799937
  - # 13
    frequency:   11.4566799937
  - # 14
    frequency:   11.5714632607
  - # 15
    frequency:   11.5714632607
  - # 16
    frequency:   11.5714632607
  - # 17
    frequency:   12.2344118555
  - # 18
    frequency:   14.0018891893
  - # 19
    frequency:   14.0018891893
  - # 20
    frequency:   14.0018891893
  - # 21
    frequency:   16.3681949444
  - # 22
    frequency:   16.3681949444
  - # 23
    frequency:   16.3681949444
  - # 24
    frequency:   17.0410026247

- q-position: [    0.3400000,    0.3400000,    0.3400000 ]
  distance:    0.0341647
  band:
  - # 1
    frequency:    5.4580759689
  - # 2
    frequency:    5.4580759689
  - # 3
    frequency:    6.4553850915
  - # 4
    frequency:    6.4553850915
  - # 5
    frequency:    6.4553850915
  - # 6
    frequency:    8.0786706923
  - # 7
    frequency:    8.0786706923
  - # 8
    frequency:    8.0786706923
  - # 9
    frequency:   11.1945964947
  - # 10
    frequency:   11.1945964947
  - # 11
    frequency:   11.1945964947
  - # 12
    frequency:   11.5470948007
  - # 13
    frequency:   11.5470948007
  - # 14
    frequency:   11.6976434153
  - # 15
    frequency:   11.6976434153
  - # 16
    frequency:   11.6976434153
  - # 17
    frequency:   11.9373253741
  - # 18
    frequency:   13.8498227220
  - # 19
    frequency:   13.8498227220
  - # 20
    frequency:   13.8498227220
  - # 21
    frequency:   16.3618636186
  - # 22
    frequency:   16.3618636186
  - # 23
    frequency:   16.3618636186
  - # 24
    frequency:   17.0152552310

- q-position: [    0.3300000,    0.3300000,    0.3300000 ]
  distance:    0.0363000
  band:
  - # 1
    frequency:    5.2966816367
  - # 2
    frequency:    5.2966816367
  - # 3
    frequency:    6.4234811050
  - # 4
    frequency:    6.4234811050
  - # 5
    frequency:    6.4234811050
  - # 6
    frequency:    8.1818103778
  - # 7
    frequency:    8.1818103778
  - # 8
    frequency:    8.1818103778
  - # 9
    frequency:   11.2751961676
  - # 10
    frequency:   11.2751961676
  - # 11
    frequency:   11.2751961676
  - # 12
    frequency:   11.6332058488
  - # 13
    frequency:   11.6332058488
  - # 14
    frequency:   11.6335161214
  - # 15
    frequency:   11.8231090547
  - # 16
    frequency:   11.8231090547
  - # 17
    frequency:   11.8231090547
  - # 18
    frequency:   13.6942648448
  - # 19
    frequency:   13.6942648448
  - # 20
    frequency:   13.6942648448
  - # 21
    frequency:   16.3523210269
  - # 22
    frequency:   16.3523210269
  - # 23
    frequency:   16.3523210269
  - # 24
    frequency:   16.9752722936

- q-position: [    0.3200000,    0.3200000,    0.3200000 ]
  distance:    0.0384353
  band:
  - # 1
    frequency:    5.1321763401
  - # 2
    frequency:    5.1321763401
  - # 3
    frequency:    6.3975991348
  - # 4
    frequency:    6.3975991348
  - # 5
    frequency:    6.3975991348
  - # 6
    frequency:    8.2849522972
  - # 7
    frequency:    8.2849522972
  - # 8
    frequency:    8.2849522972
  - # 9
    frequency:   11.3233640006
  - # 10
    frequency:   11.3564674289
  - # 11
    frequency:   11.3564674289
  - # 12
    frequency:   11.3564674289
  - # 13
    frequency:   11.7142238814
  - # 14
    frequency:   11.7142238814
  - # 15
    frequency:   11.9465767941
  - # 16
    frequency:   11.9465767941
  - # 17
    frequency:   11.9465767941
  - # 18
    frequency:   13.5362736125
  - # 19
    frequency:   13.5362736125
  - # 20
    frequency:   13.5362736125
  - # 21
    frequency:   16.3395220532
  - # 22
    frequency:   16.3395220532
  - # 23
    frequency:   16.3395220532
  - # 24
    frequency:   16.9208164334

- q-position: [    0.3100000,    0.3100000,    0.3100000 ]
  distance:    0.0405706
  band:
  - # 1
    frequency:    4.9649718526
  - # 2
    frequency:    4.9649718526
  - # 3
    frequency:    6.3781697679
  - # 4
    frequency:    6.3781697679
  - # 5
    frequency:    6.3781697679
  - # 6
    frequency:    8.3870118255
  - # 7
    frequency:    8.3870118255
  - # 8
    frequency:    8.3870118255
  - # 9
    frequency:   11.0072504215
  - # 10
    frequency:   11.4380802514
  - # 11
    frequency:   11.4380802514
  - # 12
    frequency:   11.4380802514
  - # 13
    frequency:   11.7894332554
  - # 14
    frequency:   11.7894332554
  - # 15
    frequency:   12.0665900965
  - # 16
    frequency:   12.0665900965
  - # 17
    frequency:   12.0665900965
  - # 18
    frequency:   13.3772168543
  - # 19
    frequency:   13.3772168543
  - # 20
    frequency:   13.3772168543
  - # 21
    frequency:   16.3234540192
  - # 22
    frequency:   16.3234540192
  - # 23
    frequency:   16.3234540192
  - # 24
    frequency:   16.8517040277

- q-position: [    0.3000000,    0.3000000,    0.3000000 ]
  distance:    0.0427059
  band:
  - # 1
    frequency:    4.7954641890
  - # 2
    frequency:    4.7954641890
  - # 3
    frequency:    6.3654944871
  - # 4
    frequency:    6.3654944871
  - # 5
    frequency:    6.3654944871
  - # 6
    frequency:    8.4868104326
  - # 7
    frequency:    8.4868104326
  - # 8
    frequency:    8.4868104326
  - # 9
    frequency:   10.6855585821
  - # 10
    frequency:   11.5197182213
  - # 11
    frequency:   11.5197182213
  - # 12
    frequency:   11.5197182213
  - # 13
    frequency:   11.8581934541
  - # 14
    frequency:   11.8581934541
  - # 15
    frequency:   12.1812550689
  - # 16
    frequency:   12.1812550689
  - # 17
    frequency:   12.1812550689
  - # 18
    frequency:   13.2190579949
  - # 19
    frequency:   13.2190579949
  - # 20
    frequency:   13.2190579949
  - # 21
    frequency:   16.3041433521
  - # 22
    frequency:   16.3041433521
  - # 23
    frequency:   16.3041433521
  - # 24
    frequency:   16.7678117656

- q-position: [    0.2900000,    0.2900000,    0.2900000 ]
  distance:    0.0448412
  band:
  - # 1
    frequency:    4.6240374968
  - # 2
    frequency:    4.6240374968
  - # 3
    frequency:    6.3597439473
  - # 4
    frequency:    6.3597439473
  - # 5
    frequency:    6.3597439473
  - # 6
    frequency:    8.5830569241
  - # 7
    frequency:    8.5830569241
  - # 8
    frequency:    8.5830569241
  - # 9
    frequency:   10.3586728924
  - # 10
    frequency:   11.6010763022
  - # 11
    frequency:   11.6010763022
  - # 12
    frequency:   11.6010763022
  - # 13
    frequency:   11.9199417018
  - # 14
    frequency:   11.9199417018
  - # 15
    frequency:   12.2874871199
  - # 16
    frequency:   12.2874871199
  - # 17
    frequency:   12.2874871199
  - # 18
    frequency:   13.0651325706
  - # 19
    frequency:   13.0651325706
  - # 20
    frequency:   13.0651325706
  - # 21
    frequency:   16.2816633962
  - # 22
    frequency:   16.2816633962
  - # 23
    frequency:   16.2816633962
  - # 24
    frequency:   16.6690841627

- q-position: [    0.2800000,    0.2800000,    0.2800000 ]
  distance:    0.0469765
  band:
  - # 1
    frequency:    4.4510663537
  - # 2
    frequency:    4.4510663537
  - # 3
    frequency:    6.3609591411
  - # 4
    frequency:    6.3609591411
  - # 5
    frequency:    6.3609591411
  - # 6
    frequency:    8.6743258435
  - # 7
    frequency:    8.6743258435
  - # 8
    frequency:    8.6743258435
  - # 9
    frequency:   10.0269777697
  - # 10
    frequency:   11.6818594464
  - # 11
    frequency:   11.6818594464
  - # 12
    frequency:   11.6818594464
  - # 13
    frequency:   11.9741963689
  - # 14
    frequency:   11.9741963689
  - # 15
    frequency:   12.3784888107
  - # 16
    frequency:   12.3784888107
  - # 17
    frequency:   12.3784888107
  - # 18
    frequency:   12.9226950796
  - # 19
    frequency:   12.9226950796
  - # 20
    frequency:   12.9226950796
  - # 21
    frequency:   16.2561428016
  - # 22
    frequency:   16.2561428016
  - # 23
    frequency:   16.2561428016
  - # 24
    frequency:   16.5555417881

- q-position: [    0.2700000,    0.2700000,    0.2700000 ]
  distance:    0.0491118
  band:
  - # 1
    frequency:    4.2769166995
  - # 2
    frequency:    4.2769166995
  - # 3
    frequency:    6.3690555483
  - # 4
    frequency:    6.3690555483
  - # 5
    frequency:    6.3690555483
  - # 6
    frequency:    8.7590351835
  - # 7
    frequency:    8.7590351835
  - # 8
    frequency:    8.7590351835
  - # 9
    frequency:    9.6908559727
  - # 10
    frequency:   11.7617819828
  - # 11
    frequency:   11.7617819828
  - # 12
    frequency:   11.7617819828
  - # 13
    frequency:   12.0205608743
  - # 14
    frequency:   12.0205608743
  - # 15
    frequency:   12.4348369839
  - # 16
    frequency:   12.4348369839
  - # 17
    frequency:   12.4348369839
  - # 18
    frequency:   12.8118566883
  - # 19
    frequency:   12.8118566883
  - # 20
    frequency:   12.8118566883
  - # 21
    frequency:   16.2277738366
  - # 22
    frequency:   16.2277738366
  - # 23
    frequency:   16.2277738366
  - # 24
    frequency:   16.4272900192

- q-position: [    0.2600000,    0.2600000,    0.2600000 ]
  distance:    0.0512471
  band:
  - # 1
    frequency:    4.1019456166
  - # 2
    frequency:    4.1019456166
  - # 3
    frequency:    6.3838301788
  - # 4
    frequency:    6.3838301788
  - # 5
    frequency:    6.3838301788
  - # 6
    frequency:    8.8354280889
  - # 7
    frequency:    8.8354280889
  - # 8
    frequency:    8.8354280889
  - # 9
    frequency:    9.3506866055
  - # 10
    frequency:   11.8405676825
  - # 11
    frequency:   11.8405676825
  - # 12
    frequency:   11.8405676825
  - # 13
    frequency:   12.0587278164
  - # 14
    frequency:   12.0587278164
  - # 15
    frequency:   12.4155045349
  - # 16
    frequency:   12.4155045349
  - # 17
    frequency:   12.4155045349
  - # 18
    frequency:   12.7745845914
  - # 19
    frequency:   12.7745845914
  - # 20
    frequency:   12.7745845914
  - # 21
    frequency:   16.1968198312
  - # 22
    frequency:   16.1968198312
  - # 23
    frequency:   16.1968198312
  - # 24
    frequency:   16.2845281817

- q-position: [    0.2500000,    0.2500000,    0.2500000 ]
  distance:    0.0533824
  band:
  - # 1
    frequency:    3.9265001466
  - # 2
    frequency:    3.9265001466
  - # 3
    frequency:    6.4049712334
  - # 4
    frequency:    6.4049712334
  - # 5
    frequency:    6.4049712334
  - # 6
    frequency:    8.9015673198
  - # 7
    frequency:    8.9015673198
  - # 8
    frequency:    8.9015673198
  - # 9
    frequency:    9.0068428931
  - # 10
    frequency:   11.9179503803
  - # 11
    frequency:   11.9179503803
  - # 12
    frequency:   11.9179503803
  - # 13
    frequency:   12.0884830848
  - # 14
    frequency:   12.0884830848
  - # 15
    frequency:   12.3222291042
  - # 16
    frequency:   12.3222291042
  - # 17
    frequency:   12.3222291042
  - # 18
    frequency:   12.8103429507
  - # 19
    frequency:   12.8103429507
  - # 20
    frequency:   12.8103429507
  - # 21
    frequency:   16.1275589563
  - # 22
    frequency:   16.1636207898
  - # 23
    frequency:   16.1636207898
  - # 24
    frequency:   16.1636207898

- q-position: [    0.2400000,    0.2400000,    0.2400000 ]
  distance:    0.0555177
  band:
  - # 1
    frequency:    3.7509153183
  - # 2
    frequency:    3.7509153183
  - # 3
    frequency:    6.4320699506
  - # 4
    frequency:    6.4320699506
  - # 5
    frequency:    6.4320699506
  - # 6
    frequency:    8.6596898144
  - # 7
    frequency:    8.9553568424
  - # 8
    frequency:    8.9553568424
  - # 9
    frequency:    8.9553568424
  - # 10
    frequency:   11.9936750238
  - # 11
    frequency:   11.9936750238
  - # 12
    frequency:   11.9936750238
  - # 13
    frequency:   12.1097097298
  - # 14
    frequency:   12.1097097298
  - # 15
    frequency:   12.2033269114
  - # 16
    frequency:   12.2033269114
  - # 17
    frequency:   12.2033269114
  - # 18
    frequency:   12.8722639359
  - # 19
    frequency:   12.8722639359
  - # 20
    frequency:   12.8722639359
  - # 21
    frequency:   15.9567979450
  - # 22
    frequency:   16.1285960239
  - # 23
    frequency:   16.1285960239
  - # 24
    frequency:   16.1285960239

- q-position: [    0.2300000,    0.2300000,    0.2300000 ]
  distance:    0.0576530
  band:
  - # 1
    frequency:    3.5755115412
  - # 2
    frequency:    3.5755115412
  - # 3
    frequency:    6.4646340918
  - # 4
    frequency:    6.4646340918
  - # 5
    frequency:    6.4646340918