64   
2    

1    
  0.0200000000000000   0.0000000000000000   0.0000000000000000
  -0.0039392202    0.0000000000    0.0000000000
   0.0005964998    0.0000000000    0.0000000000
  -0.0000078502    0.0000000000    0.0000000000
   0.0000082598    0.0000000000    0.0000000000
  -0.0000078502    0.0000000000    0.0000000000
   0.0000082598    0.0000000000    0.0000000000
  -0.0000530702    0.0000000000    0.0000000000
   0.0000314798    0.0000000000    0.0000000000
   0.0002408798    0.0006224800    0.0000000000
   0.0002388698   -0.0006201000    0.0000000000
   0.0002408798   -0.0006224800    0.0000000000
   0.0002388698    0.0006201000    0.0000000000
  -0.0000129602   -0.0000148300    0.0000000000
  -0.0000145702    0.0000117900    0.0000000000
  -0.0000129602    0.0000148300    0.0000000000
  -0.0000145702   -0.0000117900    0.0000000000
  -0.0001891202   -0.0000033600   -0.0000033600
   0.0000937798   -0.0000015700   -0.0000015700
  -0.0001891202    0.0000033600   -0.0000033600
   0.0000937798    0.0000015700   -0.0000015700
  -0.0001891202   -0.0000033600    0.0000033600
   0.0000937798   -0.0000015700    0.0000015700
  -0.0001891202    0.0000033600    0.0000033600
   0.0000937798    0.0000015700    0.0000015700
   0.0002408798   -0.0000000000    0.0006224800
   0.0002388698    0.0000000000   -0.0006201000
  -0.0000129602    0.0000000000   -0.0000148300
  -0.0000145702    0.0000000000    0.0000117900
   0.0002408798    0.0000000000   -0.0006224800
   0.0002388698    0.0000000000    0.0006201000
  -0.0000129602    0.0000000000    0.0000148300
  -0.0000145702    0.0000000000   -0.0000117900
   0.0006479298    0.0000000000    0.0000000000
   0.0005575098    0.0000000000    0.0000000000
   0.0000066898    0.0000000000    0.0000000000
   0.0000060698    0.0000000000    0.0000000000
   0.0000066898    0.0000000000    0.0000000000
   0.0000060698    0.0000000000    0.0000000000
  -0.0000111302    0.0000000000    0.0000000000
  -0.0000113302    0.0000000000    0.0000000000
   0.0005043798   -0.0000027600    0.0000000000
  -0.0002444602   -0.0000002000    0.0000000000
   0.0005043798    0.0000027600    0.0000000000
  -0.0002444602    0.0000002000    0.0000000000
   0.0000397598    0.0000001700    0.0000000000
  -0.0000682402   -0.0000002500    0.0000000000
   0.0000397598   -0.0000001700    0.0000000000
  -0.0000682402    0.0000002500    0.0000000000
   0.0005043798    0.0000000000   -0.0000027600
  -0.0002444602    0.0000000000   -0.0000002000
   0.0000397598    0.0000000000    0.0000001700
  -0.0000682402    0.0000000000   -0.0000002500
   0.0005043798    0.0000000000    0.0000027600
  -0.0002444602    0.0000000000    0.0000002000
   0.0000397598    0.0000000000   -0.0000001700
  -0.0000682402    0.0000000000    0.0000002500
  -0.0000245402   -0.0001041000   -0.0001041000
  -0.0000250302    0.0001033700    0.0001033700
  -0.0000245402    0.0001041000   -0.0001041000
  -0.0000250302   -0.0001033700    0.0001033700
  -0.0000245402   -0.0001041000    0.0001041000
  -0.0000250302    0.0001033700   -0.0001033700
  -0.0000245402    0.0001041000    0.0001041000
  -0.0000250302   -0.0001033700   -0.0001033700

33   
  0.0200000000000000   0.0000000000000000   0.0000000000000000
   0.0005742095    0.0000000000    0.0000000000
   0.0006539495    0.0000000000    0.0000000000
   0.0000148195    0.0000000000    0.0000000000
   0.0000134895    0.0000000000    0.0000000000
   0.0000148195    0.0000000000    0.0000000000
   0.0000134895    0.0000000000    0.0000000000
  -0.0000032405    0.0000000000    0.0000000000
  -0.0000017305    0.0000000000    0.0000000000
   0.0005107395   -0.0000015500    0.0000000000
  -0.0002345705   -0.0000034600    0.0000000000
   0.0005107395    0.0000015500    0.0000000000
  -0.0002345705    0.0000034600    0.0000000000
   0.0000455895   -0.0000027400    0.0000000000
  -0.0000580605   -0.0000013000    0.0000000000
   0.0000455895    0.0000027400    0.0000000000
  -0.0000580605    0.0000013000    0.0000000000
  -0.0000176505    0.0001009400    0.0001009400
  -0.0000159005   -0.0001067200   -0.0001067200
  -0.0000176505   -0.0001009400    0.0001009400
  -0.0000159005    0.0001067200   -0.0001067200
  -0.0000176505    0.0001009400   -0.0001009400
  -0.0000159005   -0.0001067200    0.0001067200
  -0.0000176505   -0.0001009400   -0.0001009400
  -0.0000159005    0.0001067200    0.0001067200
   0.0005107395    0.0000000000   -0.0000015500
  -0.0002345705    0.0000000000   -0.0000034600
   0.0000455895    0.0000000000   -0.0000027400
  -0.0000580605    0.0000000000   -0.0000013000
   0.0005107395    0.0000000000    0.0000015500
  -0.0002345705    0.0000000000    0.0000034600
   0.0000455895    0.0000000000    0.0000027400
  -0.0000580605    0.0000000000    0.0000013000
  -0.0045542705    0.0000000000    0.0000000000
   0.0002520995    0.0000000000    0.0000000000
  -0.0001239505    0.0000000000    0.0000000000
   0.0001706195    0.0000000000    0.0000000000
  -0.0001239505    0.0000000000    0.0000000000
   0.0001706195    0.0000000000    0.0000000000
  -0.0000439905    0.0000000000    0.0000000000
   0.0000375995    0.0000000000    0.0000000000
   0.0002868195   -0.0003962700    0.0000000000
   0.0002877095    0.0003996600    0.0000000000
   0.0002868195    0.0003962700    0.0000000000
   0.0002877095   -0.0003996600    0.0000000000
  -0.0000078505   -0.0000472600    0.0000000000
  -0.0000085105    0.0000472500    0.0000000000
  -0.0000078505    0.0000472600    0.0000000000
  -0.0000085105   -0.0000472500    0.0000000000
   0.0002868195    0.0000000000   -0.0003962700
   0.0002877095    0.0000000000    0.0003996600
  -0.0000078505    0.0000000000   -0.0000472600
  -0.0000085105    0.0000000000    0.0000472500
   0.0002868195    0.0000000000    0.0003962700
   0.0002877095    0.0000000000   -0.0003996600
  -0.0000078505    0.0000000000    0.0000472600
  -0.0000085105    0.0000000000   -0.0000472500
  -0.0001757505   -0.0000008300   -0.0000008300
   0.0001212895    0.0000000900    0.0000000900
  -0.0001757505    0.0000008300   -0.0000008300
   0.0001212895   -0.0000000900    0.0000000900
  -0.0001757505   -0.0000008300    0.0000008300
   0.0001212895    0.0000000900   -0.0000000900
  -0.0001757505    0.0000008300    0.0000008300
   0.0001212895   -0.0000000900   -0.0000000900
