
     Program PWSCF v.5.1.1 starts on  1Mar2017 at 14:45:12 

     This program is part of the open-source Quantum ESPRESSO suite
     for quantum simulation of materials; please cite
         "P. Giannozzi et al., J. Phys.:Condens. Matter 21 395502 (2009);
          URL http://www.quantum-espresso.org", 
     in publications or presentations arising from this work. More details at
     http://www.quantum-espresso.org/quote

     Parallel version (MPI), running on    16 processors
     R & G space division:  proc/nbgrp/npool/nimage =      16
     Waiting for input...
     Reading input from standard input

     Current dimensions of program PWSCF are:
     Max number of different atomic species (ntypx) = 10
     Max number of k-points (npk) =  40000
     Max angular momentum in pseudopotentials (lmaxx) =  3
               file Mg.pbe-nsp-bpaw.UPF: wavefunction(s)  Xn Xn Xn Xn Xn Xn renormalized

     Subspace diagonalization in iterative solution of the eigenvalue problem:
     scalapack distributed-memory algorithm (size of sub-group:  2*  2 procs)

 
     Parallelization info
     --------------------
     sticks:   dense  smooth     PW     G-vecs:    dense   smooth      PW
     Min         367     367     97                21123    21123    2891
     Max         368     368     98                21126    21126    2894
     Sum        5877    5877   1565               337987   337987   46297
 


     bravais-lattice index     =            0
     lattice parameter (alat)  =      16.2236  a.u.
     unit-cell volume          =    4270.1026 (a.u.)^3
     number of atoms/cell      =           64
     number of atomic types    =            2
     number of electrons       =       512.00
     number of Kohn-Sham states=          256
     kinetic-energy cutoff     =      70.0000  Ry
     charge density cutoff     =     280.0000  Ry
     convergence threshold     =      1.0E-09
     mixing beta               =       0.7000
     number of iterations used =            8  plain     mixing
     Exchange-correlation      =  SLA  PW   PBX  PBC ( 1  4  3  4 0 0)

     celldm(1)=  16.223558  celldm(2)=   0.000000  celldm(3)=   0.000000
     celldm(4)=   0.000000  celldm(5)=   0.000000  celldm(6)=   0.000000

     crystal axes: (cart. coord. in units of alat)
               a(1) = (   1.000000   0.000000   0.000000 )  
               a(2) = (   0.000000   1.000000   0.000000 )  
               a(3) = (   0.000000   0.000000   1.000000 )  

     reciprocal axes: (cart. coord. in units 2 pi/alat)
               b(1) = (  1.000000  0.000000  0.000000 )  
               b(2) = (  0.000000  1.000000  0.000000 )  
               b(3) = (  0.000000  0.000000  1.000000 )  


     PseudoPot. # 1 for Mg read from file:
     ../pseudo/Mg.pbe-nsp-bpaw.UPF
     MD5 check sum: f47e0adbead6454d4e42896e4aa7b341
     Pseudo is Projector augmented-wave + core cor, Zval = 10.0
     Generated using ATOMPAW code
     Shape of augmentation charge: BESSEL
     Using radial grid of 1171 points,  6 beta functions with: 
                l(1) =   0
                l(2) =   0
                l(3) =   0
                l(4) =   0
                l(5) =   1
                l(6) =   1
     Q(r) pseudized with 0 coefficients 


     PseudoPot. # 2 for  O read from file:
     ../pseudo/O.pbe-kjpaw.UPF
     MD5 check sum: 90f4868982d1b5f8aada8373f3a0510a
     Pseudo is Projector augmented-wave + core cor, Zval =  6.0
     Generated using "atomic" code by A. Dal Corso (espresso distribution)
     Shape of augmentation charge: BESSEL
     Using radial grid of 1095 points,  4 beta functions with: 
                l(1) =   0
                l(2) =   0
                l(3) =   1
                l(4) =   1
     Q(r) pseudized with 0 coefficients 


     atomic species   valence    mass     pseudopotential
        Mg            10.00    24.30500     Mg( 1.00)
        O              6.00    15.99940      O( 1.00)

      8 Sym. Ops. (no inversion) found



   Cartesian axes

     site n.     atom                  positions (alat units)
         1           Mg  tau(   1) = (   0.0012328   0.0000000   0.0000000  )
         2           Mg  tau(   2) = (   0.5000000   0.0000000   0.0000000  )
         3           Mg  tau(   3) = (   0.0000000   0.5000000   0.0000000  )
         4           Mg  tau(   4) = (   0.5000000   0.5000000   0.0000000  )
         5           Mg  tau(   5) = (   0.0000000   0.0000000   0.5000000  )
         6           Mg  tau(   6) = (   0.5000000   0.0000000   0.5000000  )
         7           Mg  tau(   7) = (   0.0000000   0.5000000   0.5000000  )
         8           Mg  tau(   8) = (   0.5000000   0.5000000   0.5000000  )
         9           Mg  tau(   9) = (   0.2500000   0.2500000   0.0000000  )
        10           Mg  tau(  10) = (   0.7500000   0.2500000   0.0000000  )
        11           Mg  tau(  11) = (   0.2500000   0.7500000   0.0000000  )
        12           Mg  tau(  12) = (   0.7500000   0.7500000   0.0000000  )
        13           Mg  tau(  13) = (   0.2500000   0.2500000   0.5000000  )
        14           Mg  tau(  14) = (   0.7500000   0.2500000   0.5000000  )
        15           Mg  tau(  15) = (   0.2500000   0.7500000   0.5000000  )
        16           Mg  tau(  16) = (   0.7500000   0.7500000   0.5000000  )
        17           Mg  tau(  17) = (   0.0000000   0.2500000   0.2500000  )
        18           Mg  tau(  18) = (   0.5000000   0.2500000   0.2500000  )
        19           Mg  tau(  19) = (   0.0000000   0.7500000   0.2500000  )
        20           Mg  tau(  20) = (   0.5000000   0.7500000   0.2500000  )
        21           Mg  tau(  21) = (   0.0000000   0.2500000   0.7500000  )
        22           Mg  tau(  22) = (   0.5000000   0.2500000   0.7500000  )
        23           Mg  tau(  23) = (   0.0000000   0.7500000   0.7500000  )
        24           Mg  tau(  24) = (   0.5000000   0.7500000   0.7500000  )
        25           Mg  tau(  25) = (   0.2500000   0.0000000   0.2500000  )
        26           Mg  tau(  26) = (   0.7500000   0.0000000   0.2500000  )
        27           Mg  tau(  27) = (   0.2500000   0.5000000   0.2500000  )
        28           Mg  tau(  28) = (   0.7500000   0.5000000   0.2500000  )
        29           Mg  tau(  29) = (   0.2500000   0.0000000   0.7500000  )
        30           Mg  tau(  30) = (   0.7500000   0.0000000   0.7500000  )
        31           Mg  tau(  31) = (   0.2500000   0.5000000   0.7500000  )
        32           Mg  tau(  32) = (   0.7500000   0.5000000   0.7500000  )
        33           O   tau(  33) = (   0.2500000   0.0000000   0.0000000  )
        34           O   tau(  34) = (   0.7500000   0.0000000   0.0000000  )
        35           O   tau(  35) = (   0.2500000   0.5000000   0.0000000  )
        36           O   tau(  36) = (   0.7500000   0.5000000   0.0000000  )
        37           O   tau(  37) = (   0.2500000   0.0000000   0.5000000  )
        38           O   tau(  38) = (   0.7500000   0.0000000   0.5000000  )
        39           O   tau(  39) = (   0.2500000   0.5000000   0.5000000  )
        40           O   tau(  40) = (   0.7500000   0.5000000   0.5000000  )
        41           O   tau(  41) = (   0.0000000   0.2500000   0.0000000  )
        42           O   tau(  42) = (   0.5000000   0.2500000   0.0000000  )
        43           O   tau(  43) = (   0.0000000   0.7500000   0.0000000  )
        44           O   tau(  44) = (   0.5000000   0.7500000   0.0000000  )
        45           O   tau(  45) = (   0.0000000   0.2500000   0.5000000  )
        46           O   tau(  46) = (   0.5000000   0.2500000   0.5000000  )
        47           O   tau(  47) = (   0.0000000   0.7500000   0.5000000  )
        48           O   tau(  48) = (   0.5000000   0.7500000   0.5000000  )
        49           O   tau(  49) = (   0.0000000   0.0000000   0.2500000  )
        50           O   tau(  50) = (   0.5000000   0.0000000   0.2500000  )
        51           O   tau(  51) = (   0.0000000   0.5000000   0.2500000  )
        52           O   tau(  52) = (   0.5000000   0.5000000   0.2500000  )
        53           O   tau(  53) = (   0.0000000   0.0000000   0.7500000  )
        54           O   tau(  54) = (   0.5000000   0.0000000   0.7500000  )
        55           O   tau(  55) = (   0.0000000   0.5000000   0.7500000  )
        56           O   tau(  56) = (   0.5000000   0.5000000   0.7500000  )
        57           O   tau(  57) = (   0.2500000   0.2500000   0.2500000  )
        58           O   tau(  58) = (   0.7500000   0.2500000   0.2500000  )
        59           O   tau(  59) = (   0.2500000   0.7500000   0.2500000  )
        60           O   tau(  60) = (   0.7500000   0.7500000   0.2500000  )
        61           O   tau(  61) = (   0.2500000   0.2500000   0.7500000  )
        62           O   tau(  62) = (   0.7500000   0.2500000   0.7500000  )
        63           O   tau(  63) = (   0.2500000   0.7500000   0.7500000  )
        64           O   tau(  64) = (   0.7500000   0.7500000   0.7500000  )

     number of k points=     6
                       cart. coord. in units 2pi/alat
        k(    1) = (   0.1250000   0.1250000   0.1250000), wk =   0.2500000
        k(    2) = (   0.1250000   0.1250000   0.3750000), wk =   0.5000000
        k(    3) = (   0.1250000   0.3750000   0.3750000), wk =   0.2500000
        k(    4) = (   0.3750000   0.3750000   0.3750000), wk =   0.2500000
        k(    5) = (   0.3750000  -0.1250000   0.1250000), wk =   0.2500000
        k(    6) = (   0.3750000  -0.3750000   0.1250000), wk =   0.5000000

     Dense  grid:   337987 G-vectors     FFT dimensions: (  90,  90,  90)

     Largest allocated arrays     est. size (Mb)     dimensions
        Kohn-Sham Wavefunctions        10.33 Mb     (    2645,  256)
        NL pseudopotentials            23.25 Mb     (    2645,  576)
        Each V/rho on FFT grid          0.74 Mb     (   48600)
        Each G-vector array             0.16 Mb     (   21125)
        G-vector shells                 0.01 Mb     (    1499)
     Largest temporary arrays     est. size (Mb)     dimensions
        Auxiliary wavefunctions        41.33 Mb     (    2645, 1024)
        Each subspace H/S matrix        4.00 Mb     (     512,  512)
        Each <psi_i|beta_j> matrix      2.25 Mb     (     576,  256)
        Arrays for rho mixing           5.93 Mb     (   48600,    8)

     Initial potential from superposition of free atoms

     starting charge  511.97358, renormalised to  512.00000
     Starting wfc are  448 randomized atomic wfcs
     Checking if some PAW data can be deallocated... 

     total cpu time spent up to now is       37.1 secs

     Self-consistent Calculation

     iteration #  1     ecut=    70.00 Ry     beta=0.70
     Davidson diagonalization with overlap
     ethr =  1.00E-02,  avg # of iterations =  1.5

     total cpu time spent up to now is       86.3 secs

     total energy              =   -5852.01996266 Ry
     Harris-Foulkes estimate   =   -5863.52611946 Ry
     estimated scf accuracy    <      14.57347573 Ry

     iteration #  2     ecut=    70.00 Ry     beta=0.70
     Davidson diagonalization with overlap
     ethr =  2.85E-03,  avg # of iterations =  3.0

     total cpu time spent up to now is      160.0 secs

     total energy              =   -5856.15933576 Ry
     Harris-Foulkes estimate   =   -5864.96384477 Ry
     estimated scf accuracy    <      18.24684449 Ry

     iteration #  3     ecut=    70.00 Ry     beta=0.70
     Davidson diagonalization with overlap
     ethr =  2.85E-03,  avg # of iterations =  3.0

     total cpu time spent up to now is      228.3 secs

     total energy              =   -5859.61504230 Ry
     Harris-Foulkes estimate   =   -5859.62322141 Ry
     estimated scf accuracy    <       0.05139153 Ry

     iteration #  4     ecut=    70.00 Ry     beta=0.70
     Davidson diagonalization with overlap
     ethr =  1.00E-05,  avg # of iterations =  3.5

     total cpu time spent up to now is      311.5 secs

     total energy              =   -5859.65493427 Ry
     Harris-Foulkes estimate   =   -5859.65781714 Ry
     estimated scf accuracy    <       0.00910258 Ry

     iteration #  5     ecut=    70.00 Ry     beta=0.70
     Davidson diagonalization with overlap
     ethr =  1.78E-06,  avg # of iterations =  2.0

     total cpu time spent up to now is      361.3 secs

     total energy              =   -5859.65524788 Ry
     Harris-Foulkes estimate   =   -5859.65584646 Ry
     estimated scf accuracy    <       0.00211769 Ry

     iteration #  6     ecut=    70.00 Ry     beta=0.70
     Davidson diagonalization with overlap
     ethr =  4.14E-07,  avg # of iterations =  2.0

     total cpu time spent up to now is      421.8 secs

     total energy              =   -5859.65537834 Ry
     Harris-Foulkes estimate   =   -5859.65547422 Ry
     estimated scf accuracy    <       0.00029156 Ry

     iteration #  7     ecut=    70.00 Ry     beta=0.70
     Davidson diagonalization with overlap
     ethr =  5.69E-08,  avg # of iterations =  3.0

     total cpu time spent up to now is      492.9 secs

     total energy              =   -5859.65545296 Ry
     Harris-Foulkes estimate   =   -5859.65546083 Ry
     estimated scf accuracy    <       0.00002338 Ry

     iteration #  8     ecut=    70.00 Ry     beta=0.70
     Davidson diagonalization with overlap
     ethr =  4.57E-09,  avg # of iterations =  2.8

     total cpu time spent up to now is      558.0 secs

     total energy              =   -5859.65545441 Ry
     Harris-Foulkes estimate   =   -5859.65545716 Ry
     estimated scf accuracy    <       0.00000782 Ry

     iteration #  9     ecut=    70.00 Ry     beta=0.70
     Davidson diagonalization with overlap
     ethr =  1.53E-09,  avg # of iterations =  2.0

     total cpu time spent up to now is      616.9 secs

     total energy              =   -5859.65545508 Ry
     Harris-Foulkes estimate   =   -5859.65545539 Ry
     estimated scf accuracy    <       0.00000067 Ry

     iteration # 10     ecut=    70.00 Ry     beta=0.70
     Davidson diagonalization with overlap
     ethr =  1.32E-10,  avg # of iterations =  3.0

     total cpu time spent up to now is      684.0 secs

     total energy              =   -5859.65545523 Ry
     Harris-Foulkes estimate   =   -5859.65545524 Ry
     estimated scf accuracy    <          7.6E-09 Ry

     iteration # 11     ecut=    70.00 Ry     beta=0.70
     Davidson diagonalization with overlap
     ethr =  1.47E-12,  avg # of iterations =  3.0

     total cpu time spent up to now is      777.6 secs

     total energy              =   -5859.65545524 Ry
     Harris-Foulkes estimate   =   -5859.65545524 Ry
     estimated scf accuracy    <          3.8E-09 Ry

     iteration # 12     ecut=    70.00 Ry     beta=0.70
     Davidson diagonalization with overlap
     ethr =  7.33E-13,  avg # of iterations =  3.0

     total cpu time spent up to now is      840.9 secs

     End of self-consistent calculation

          k = 0.1250 0.1250 0.1250 ( 42250 PWs)   bands (ev):

   -63.2373 -63.2350 -63.2350 -63.2340 -63.2331 -63.2314 -63.2311 -63.2310
   -63.2301 -63.2297 -63.2297 -63.2294 -63.2292 -63.2292 -63.2290 -63.2290
   -63.2283 -63.2282 -63.2279 -63.2277 -63.2276 -63.2275 -63.2273 -63.2272
   -63.2267 -63.2262 -63.2261 -63.2260 -63.2237 -63.2235 -63.2234 -63.2223
   -30.3628 -30.3626 -30.3623 -30.3612 -30.3533 -30.3532 -30.3531 -30.3470
   -30.3463 -30.3457 -30.3455 -30.3455 -30.3452 -30.3452 -30.3445 -30.3443
   -30.3424 -30.3421 -30.3410 -30.3408 -30.3408 -30.3399 -30.3399 -30.3392
   -30.3392 -30.3342 -30.3341 -30.3336 -30.3334 -30.3332 -30.3331 -30.3326
   -30.3325 -30.3322 -30.3263 -30.3262 -30.3258 -30.3231 -30.3229 -30.3226
   -30.3225 -30.3218 -30.3218 -30.3212 -30.3205 -30.3205 -30.3200 -30.3198
   -30.3195 -30.3193 -30.3189 -30.3187 -30.3185 -30.3184 -30.3182 -30.3182
   -30.3175 -30.3163 -30.3156 -30.3152 -30.3150 -30.3101 -30.3101 -30.3099
   -30.3098 -30.3090 -30.3089 -30.3083 -30.3073 -30.3062 -30.3060 -30.3053
   -30.3053 -30.3051 -30.3050 -30.3047 -30.3044 -30.3043 -30.3042 -30.3041
   -30.3040 -30.3039 -30.3037 -30.3034 -30.3034 -30.3030 -30.3028 -30.3027
   -30.3024 -30.3012 -30.3008 -30.3004 -30.2992 -30.2979 -30.2959 -30.2957
    -7.8721  -7.3427  -7.3405  -7.3384  -7.0767  -7.0744  -7.0724  -6.9679
    -6.9657  -6.9636  -6.7988  -6.7944  -6.7944  -6.7939  -6.7938  -6.7906
    -6.7879  -6.7299  -6.7292  -6.7292  -6.6779  -6.6759  -6.6736  -6.5400
    -6.5391  -6.5390  -6.4927  -6.4892  -6.4892  -6.4887  -6.4887  -6.4841
     4.7367   4.7367   4.7367   4.8008   5.2481   5.2481   5.2482   5.6087
     5.6107   5.6126   5.6483   5.6496   5.6502   5.6504   5.6513   5.6524
     5.8328   5.8336   5.8344   5.9956   5.9956   5.9972   5.9973   5.9988
     5.9989   6.1626   6.1638   6.1649   6.4781   6.4781   6.4794   6.4794
     6.4804   6.4808   6.7817   6.7817   6.7818   6.8621   6.8623   6.8624
     7.2491   7.2492   7.2503   7.2504   7.2506   7.2513   7.4846   7.4849
     7.4862   7.4862   7.4868   7.4874   7.6145   7.6155   7.6165   7.6567
     7.6573   7.6574   7.7824   7.7824   7.7830   8.1696   8.1702   8.1707
     8.2185   8.2195   8.2208   8.2952   8.2959   8.2960   8.3001   8.3014
     8.3024   8.3628   8.3644   8.3647   8.3652   8.3655   8.3670   8.3982
     8.3983   8.3987   8.4395   8.4412   8.4431   8.4469   8.4471   8.4573
     8.4588   8.4595   8.5456   8.5468   8.5478   8.7481   8.9938   8.9939

          k = 0.1250 0.1250 0.3750 ( 42264 PWs)   bands (ev):

   -63.2370 -63.2357 -63.2350 -63.2339 -63.2330 -63.2314 -63.2312 -63.2309
   -63.2303 -63.2298 -63.2296 -63.2295 -63.2293 -63.2293 -63.2291 -63.2290
   -63.2282 -63.2281 -63.2277 -63.2276 -63.2276 -63.2272 -63.2270 -63.2268
   -63.2268 -63.2265 -63.2264 -63.2260 -63.2238 -63.2235 -63.2232 -63.2224
   -30.3598 -30.3587 -30.3586 -30.3562 -30.3536 -30.3523 -30.3520 -30.3508
   -30.3504 -30.3498 -30.3486 -30.3471 -30.3464 -30.3456 -30.3453 -30.3450
   -30.3441 -30.3436 -30.3431 -30.3420 -30.3417 -30.3415 -30.3410 -30.3408
   -30.3373 -30.3367 -30.3353 -30.3352 -30.3338 -30.3337 -30.3310 -30.3307
   -30.3301 -30.3299 -30.3286 -30.3283 -30.3277 -30.3275 -30.3258 -30.3255
   -30.3234 -30.3231 -30.3197 -30.3192 -30.3186 -30.3183 -30.3181 -30.3177
   -30.3168 -30.3161 -30.3158 -30.3153 -30.3151 -30.3146 -30.3140 -30.3136
   -30.3133 -30.3133 -30.3131 -30.3127 -30.3119 -30.3118 -30.3113 -30.3111
   -30.3107 -30.3101 -30.3098 -30.3089 -30.3086 -30.3085 -30.3077 -30.3076
   -30.3072 -30.3072 -30.3070 -30.3063 -30.3052 -30.3049 -30.3048 -30.3045
   -30.3043 -30.3042 -30.3039 -30.3038 -30.3035 -30.3031 -30.3020 -30.3020
   -30.3013 -30.3011 -30.3004 -30.2997 -30.2995 -30.2991 -30.2974 -30.2967
    -7.7717  -7.5853  -7.2684  -7.2653  -7.1350  -7.1320  -7.0189  -7.0159
    -6.9267  -6.9178  -6.9148  -6.8605  -6.8285  -6.7756  -6.7751  -6.7488
    -6.7484  -6.6940  -6.6794  -6.6482  -6.6453  -6.6402  -6.5826  -6.5796
    -6.5438  -6.5408  -6.5251  -6.5246  -6.5197  -6.5166  -6.5040  -6.5028
     4.8906   4.9432   4.9433   5.0678   5.2264   5.3003   5.3005   5.3824
     5.3825   5.3939   5.4687   5.6386   5.6400   5.6414   5.6419   5.6966
     5.7209   5.7240   5.7857   5.7875   5.8114   5.8136   5.9206   5.9238
     6.0176   6.0195   6.1505   6.1513   6.3804   6.3807   6.5148   6.5153
     6.5464   6.5465   6.6693   6.6699   6.9271   6.9282   6.9329   6.9333
     7.3539   7.3541   7.3580   7.5023   7.5919   7.5924   7.6400   7.6408
     7.6483   7.6488   7.7297   7.7303   7.7378   7.7397   7.7523   7.8013
     7.8021   7.8617   7.8967   7.9304   7.9670   7.9777   7.9793   7.9826
     7.9832   8.0125   8.0571   8.0575   8.0743   8.0760   8.1100   8.1113
     8.2223   8.2672   8.2700   8.2763   8.2780   8.3135   8.3197   8.3357
     8.3381   8.3537   8.3693   8.3699   8.3778   8.3784   8.4927   8.5276
     8.5420   8.5440   8.5993   8.6010   8.6940   8.7035   8.8856   8.9078

          k = 0.1250 0.3750 0.3750 ( 42205 PWs)   bands (ev):

   -63.2367 -63.2355 -63.2355 -63.2336 -63.2332 -63.2314 -63.2312 -63.2307
   -63.2302 -63.2300 -63.2298 -63.2296 -63.2294 -63.2293 -63.2292 -63.2292
   -63.2278 -63.2276 -63.2276 -63.2275 -63.2272 -63.2272 -63.2271 -63.2270
   -63.2268 -63.2267 -63.2264 -63.2263 -63.2239 -63.2233 -63.2232 -63.2226
   -30.3576 -30.3569 -30.3543 -30.3528 -30.3527 -30.3518 -30.3516 -30.3509
   -30.3504 -30.3488 -30.3481 -30.3481 -30.3476 -30.3475 -30.3461 -30.3459
   -30.3455 -30.3453 -30.3450 -30.3448 -30.3444 -30.3435 -30.3434 -30.3429
   -30.3415 -30.3414 -30.3410 -30.3346 -30.3339 -30.3320 -30.3318 -30.3275
   -30.3273 -30.3270 -30.3257 -30.3250 -30.3249 -30.3229 -30.3225 -30.3215
   -30.3213 -30.3200 -30.3199 -30.3198 -30.3197 -30.3193 -30.3191 -30.3169
   -30.3166 -30.3166 -30.3162 -30.3159 -30.3156 -30.3153 -30.3149 -30.3149
   -30.3142 -30.3133 -30.3121 -30.3120 -30.3117 -30.3115 -30.3112 -30.3110
   -30.3107 -30.3106 -30.3101 -30.3091 -30.3087 -30.3084 -30.3079 -30.3078
   -30.3077 -30.3077 -30.3074 -30.3064 -30.3063 -30.3061 -30.3061 -30.3055
   -30.3054 -30.3053 -30.3048 -30.3042 -30.3033 -30.3031 -30.3025 -30.3024
   -30.3018 -30.3008 -30.3008 -30.2989 -30.2977 -30.2976 -30.2973 -30.2961
    -7.6757  -7.4985  -7.4983  -7.3389  -7.1989  -7.0773  -7.0772  -6.9785
    -6.9669  -6.8792  -6.8789  -6.8167  -6.7891  -6.7891  -6.7230  -6.7220
    -6.6618  -6.6613  -6.6494  -6.6490  -6.6177  -6.6165  -6.6065  -6.6062
    -6.5790  -6.5786  -6.5617  -6.5617  -6.5359  -6.5179  -6.5126  -6.5121
     5.0335   5.0336   5.1771   5.3222   5.3223   5.3295   5.3296   5.3790
     5.4670   5.4674   5.5078   5.5199   5.5201   5.5510   5.5511   5.6040
     5.6041   5.6353   5.6355   5.6693   5.6693   5.7365   5.7366   5.7974
     5.7974   5.8045   5.8188   6.2002   6.3545   6.5630   6.5630   6.6145
     6.8442   6.8448   6.9537   7.0827   7.0829   7.0940   7.0940   7.1187
     7.1188   7.2681   7.2681   7.3448   7.3456   7.4824   7.4831   7.6292
     7.6299   7.7062   7.7063   7.7421   7.7556   7.7556   7.8287   7.8290
     7.8802   7.8806   7.8833   7.8838   7.8848   7.9255   7.9259   8.0071
     8.0165   8.0167   8.0306   8.0310   8.0661   8.0777   8.1397   8.1398
     8.1585   8.1585   8.2380   8.2380   8.2500   8.2503   8.2613   8.2972
     8.3255   8.3256   8.3290   8.4083   8.4531   8.4652   8.4669   8.5511
     8.5533   8.5538   8.5561   8.7611   8.7719   8.7815   8.7816   8.9149

          k = 0.3750 0.3750 0.3750 ( 42235 PWs)   bands (ev):

   -63.2366 -63.2355 -63.2355 -63.2336 -63.2329 -63.2318 -63.2311 -63.2310
   -63.2307 -63.2307 -63.2301 -63.2293 -63.2292 -63.2287 -63.2286 -63.2286
   -63.2278 -63.2277 -63.2277 -63.2274 -63.2272 -63.2271 -63.2271 -63.2271
   -63.2269 -63.2267 -63.2265 -63.2265 -63.2239 -63.2233 -63.2233 -63.2226
   -30.3554 -30.3544 -30.3542 -30.3520 -30.3518 -30.3510 -30.3505 -30.3502
   -30.3499 -30.3498 -30.3496 -30.3489 -30.3484 -30.3484 -30.3481 -30.3480
   -30.3479 -30.3476 -30.3472 -30.3472 -30.3461 -30.3456 -30.3453 -30.3452
   -30.3424 -30.3344 -30.3343 -30.3341 -30.3265 -30.3265 -30.3260 -30.3257
   -30.3256 -30.3255 -30.3249 -30.3248 -30.3246 -30.3244 -30.3243 -30.3237
   -30.3232 -30.3232 -30.3223 -30.3189 -30.3183 -30.3182 -30.3174 -30.3172
   -30.3172 -30.3168 -30.3168 -30.3162 -30.3159 -30.3157 -30.3149 -30.3149
   -30.3143 -30.3141 -30.3141 -30.3131 -30.3131 -30.3128 -30.3127 -30.3119
   -30.3118 -30.3116 -30.3111 -30.3110 -30.3103 -30.3100 -30.3097 -30.3093
   -30.3092 -30.3091 -30.3090 -30.3089 -30.3076 -30.3075 -30.3073 -30.3069
   -30.3033 -30.3031 -30.3025 -30.3016 -30.3014 -30.3010 -30.3007 -30.3003
   -30.2996 -30.2990 -30.2989 -30.2982 -30.2980 -30.2977 -30.2975 -30.2971
    -7.5846  -7.4188  -7.4166  -7.4145  -7.2696  -7.2674  -7.2653  -7.1389
    -6.7598  -6.7572  -6.7555  -6.7094  -6.7049  -6.7049  -6.7043  -6.7043
    -6.7010  -6.6798  -6.6792  -6.6789  -6.6022  -6.6010  -6.6006  -6.5872
    -6.5842  -6.5831  -6.5802  -6.5783  -6.5783  -6.5779  -6.5779  -6.5712
     5.1885   5.1886   5.1888   5.4109   5.4134   5.4155   5.4322   5.4329
     5.4339   5.4341   5.4355   5.4360   5.4978   5.4981   5.4985   5.5326
     5.5327   5.5342   5.5345   5.5358   5.5362   5.5726   5.5743   5.5763
     5.7573   6.2273   6.2274   6.2275   6.7242   6.7246   6.7249   6.9511
     6.9511   6.9522   6.9581   6.9582   6.9589   6.9594   6.9601   6.9602
     7.1954   7.1963   7.1964   7.2942   7.4342   7.4354   7.4361   7.4365
     7.4373   7.4383   7.5497   7.5504   7.5505   7.5785   7.5786   7.5788
     7.9510   7.9514   7.9518   7.9609   7.9618   7.9628   7.9631   7.9644
     7.9653   8.0814   8.0822   8.0837   8.1116   8.1134   8.1143   8.1148
     8.1150   8.1152   8.1157   8.1163   8.1187   8.2059   8.2059   8.2064
     8.4990   8.5008   8.5025   8.5989   8.5989   8.6634   8.6643   8.6655
     8.7023   8.7032   8.7036   8.7044   8.7056   8.7078   8.8250   8.8250

          k = 0.3750-0.1250 0.1250 ( 42264 PWs)   bands (ev):

   -63.2372 -63.2350 -63.2350 -63.2340 -63.2330 -63.2323 -63.2310 -63.2310
   -63.2302 -63.2302 -63.2294 -63.2293 -63.2291 -63.2291 -63.2286 -63.2285
   -63.2285 -63.2285 -63.2279 -63.2277 -63.2274 -63.2273 -63.2272 -63.2272
   -63.2269 -63.2262 -63.2262 -63.2261 -63.2238 -63.2235 -63.2234 -63.2223
   -30.3599 -30.3594 -30.3585 -30.3568 -30.3524 -30.3514 -30.3513 -30.3510
   -30.3510 -30.3499 -30.3481 -30.3460 -30.3458 -30.3456 -30.3454 -30.3450
   -30.3449 -30.3439 -30.3438 -30.3432 -30.3431 -30.3421 -30.3405 -30.3403
   -30.3366 -30.3365 -30.3352 -30.3351 -30.3342 -30.3341 -30.3307 -30.3306
   -30.3305 -30.3304 -30.3287 -30.3284 -30.3276 -30.3273 -30.3254 -30.3254
   -30.3239 -30.3224 -30.3198 -30.3188 -30.3182 -30.3182 -30.3178 -30.3174
   -30.3163 -30.3160 -30.3159 -30.3153 -30.3152 -30.3150 -30.3143 -30.3142
   -30.3139 -30.3134 -30.3129 -30.3125 -30.3116 -30.3111 -30.3110 -30.3110
   -30.3108 -30.3100 -30.3097 -30.3091 -30.3091 -30.3084 -30.3084 -30.3075
   -30.3074 -30.3070 -30.3067 -30.3062 -30.3061 -30.3060 -30.3049 -30.3044
   -30.3042 -30.3039 -30.3037 -30.3037 -30.3036 -30.3026 -30.3022 -30.3020
   -30.3014 -30.3008 -30.3004 -30.3001 -30.2996 -30.2992 -30.2969 -30.2967
    -7.7717  -7.5853  -7.2670  -7.2668  -7.1335  -7.1334  -7.0176  -7.0173
    -6.9270  -6.9163  -6.9159  -6.8604  -6.8285  -6.7764  -6.7751  -6.7483
    -6.7482  -6.6943  -6.6789  -6.6473  -6.6467  -6.6399  -6.5814  -6.5811
    -6.5421  -6.5419  -6.5256  -6.5244  -6.5189  -6.5187  -6.5035  -6.5021
     4.8906   4.9432   4.9433   5.0678   5.2265   5.3003   5.3005   5.3824
     5.3824   5.3939   5.4687   5.6395   5.6395   5.6414   5.6415   5.6966
     5.7223   5.7224   5.7866   5.7867   5.8125   5.8125   5.9222   5.9223
     6.0186   6.0186   6.1509   6.1509   6.3805   6.3805   6.5151   6.5151
     6.5464   6.5465   6.6696   6.6696   6.9278   6.9278   6.9329   6.9331
     7.3538   7.3542   7.3580   7.5023   7.5917   7.5926   7.6404   7.6405
     7.6485   7.6487   7.7300   7.7305   7.7386   7.7387   7.7521   7.8017
     7.8017   7.8616   7.8967   7.9305   7.9669   7.9783   7.9785   7.9830
     7.9831   8.0127   8.0573   8.0577   8.0749   8.0749   8.1105   8.1106
     8.2224   8.2684   8.2686   8.2772   8.2772   8.3136   8.3194   8.3369
     8.3370   8.3538   8.3679   8.3698   8.3783   8.3794   8.4926   8.5278
     8.5429   8.5430   8.6001   8.6003   8.6939   8.7035   8.8856   8.9078

          k = 0.3750-0.3750 0.1250 ( 42205 PWs)   bands (ev):

   -63.2369 -63.2356 -63.2350 -63.2338 -63.2327 -63.2321 -63.2313 -63.2310
   -63.2308 -63.2300 -63.2295 -63.2294 -63.2291 -63.2289 -63.2287 -63.2286
   -63.2284 -63.2282 -63.2277 -63.2275 -63.2274 -63.2273 -63.2270 -63.2269
   -63.2269 -63.2265 -63.2265 -63.2262 -63.2239 -63.2235 -63.2232 -63.2224
   -30.3575 -30.3573 -30.3549 -30.3532 -30.3520 -30.3519 -30.3505 -30.3497
   -30.3495 -30.3491 -30.3489 -30.3485 -30.3482 -30.3473 -30.3468 -30.3465
   -30.3461 -30.3456 -30.3448 -30.3446 -30.3441 -30.3436 -30.3433 -30.3421
   -30.3416 -30.3414 -30.3410 -30.3343 -30.3340 -30.3324 -30.3317 -30.3280
   -30.3271 -30.3265 -30.3259 -30.3257 -30.3246 -30.3227 -30.3220 -30.3218
   -30.3207 -30.3203 -30.3201 -30.3198 -30.3195 -30.3192 -30.3188 -30.3172
   -30.3168 -30.3162 -30.3160 -30.3158 -30.3153 -30.3149 -30.3144 -30.3140
   -30.3136 -30.3133 -30.3132 -30.3129 -30.3125 -30.3118 -30.3113 -30.3111
   -30.3107 -30.3105 -30.3098 -30.3096 -30.3095 -30.3094 -30.3091 -30.3081
   -30.3077 -30.3072 -30.3068 -30.3067 -30.3064 -30.3062 -30.3060 -30.3056
   -30.3055 -30.3045 -30.3040 -30.3036 -30.3032 -30.3031 -30.3024 -30.3019
   -30.3016 -30.3008 -30.2997 -30.2987 -30.2983 -30.2981 -30.2975 -30.2963
    -7.6758  -7.4999  -7.4968  -7.3389  -7.1990  -7.0788  -7.0758  -6.9787
    -6.9668  -6.8806  -6.8775  -6.8165  -6.7907  -6.7877  -6.7225  -6.7221
    -6.6622  -6.6618  -6.6503  -6.6474  -6.6171  -6.6167  -6.6078  -6.6048
    -6.5804  -6.5775  -6.5622  -6.5613  -6.5363  -6.5187  -6.5135  -6.5103
     5.0335   5.0336   5.1770   5.3205   5.3238   5.3281   5.3313   5.3791
     5.4671   5.4673   5.5080   5.5195   5.5203   5.5510   5.5512   5.6028
     5.6051   5.6351   5.6357   5.6682   5.6705   5.7353   5.7379   5.7971
     5.7977   5.8045   5.8187   6.2002   6.3545   6.5622   6.5638   6.6145
     6.8442   6.8448   6.9537   7.0821   7.0835   7.0928   7.0951   7.1181
     7.1195   7.2671   7.2690   7.3449   7.3456   7.4824   7.4831   7.6294
     7.6298   7.7053   7.7073   7.7421   7.7553   7.7559   7.8288   7.8290
     7.8802   7.8811   7.8823   7.8833   7.8858   7.9254   7.9259   8.0071
     8.0162   8.0167   8.0306   8.0313   8.0662   8.0776   8.1383   8.1412
     8.1573   8.1597   8.2371   8.2388   8.2500   8.2504   8.2613   8.2971
     8.3242   8.3268   8.3292   8.4084   8.4531   8.4640   8.4680   8.5515
     8.5535   8.5536   8.5556   8.7610   8.7718   8.7799   8.7833   8.9149

     highest occupied level (ev):     8.9939

!    total energy              =   -5859.65545524 Ry
     Harris-Foulkes estimate   =   -5859.65545524 Ry
     estimated scf accuracy    <          1.3E-10 Ry

     total all-electron energy =     -9339.999336 Ry

     The total energy is the sum of the following terms:

     one-electron contribution =   -2968.58949687 Ry
     hartree contribution      =     784.71070930 Ry
     xc contribution           =    -624.01197838 Ry
     ewald contribution        =   -2975.65777642 Ry
     one-center paw contrib.   =     -76.10691287 Ry

     convergence has been achieved in  12 iterations

     Forces acting on atoms (Ry/au):

     atom    1 type  1   force =    -0.00393922    0.00000000    0.00000000
     atom    2 type  1   force =     0.00059650    0.00000000    0.00000000
     atom    3 type  1   force =    -0.00000785    0.00000000    0.00000000
     atom    4 type  1   force =     0.00000826    0.00000000    0.00000000
     atom    5 type  1   force =    -0.00000785    0.00000000    0.00000000
     atom    6 type  1   force =     0.00000826    0.00000000    0.00000000
     atom    7 type  1   force =    -0.00005307    0.00000000    0.00000000
     atom    8 type  1   force =     0.00003148    0.00000000    0.00000000
     atom    9 type  1   force =     0.00024088    0.00062248    0.00000000
     atom   10 type  1   force =     0.00023887   -0.00062010    0.00000000
     atom   11 type  1   force =     0.00024088   -0.00062248   -0.00000000
     atom   12 type  1   force =     0.00023887    0.00062010    0.00000000
     atom   13 type  1   force =    -0.00001296   -0.00001483    0.00000000
     atom   14 type  1   force =    -0.00001457    0.00001179    0.00000000
     atom   15 type  1   force =    -0.00001296    0.00001483    0.00000000
     atom   16 type  1   force =    -0.00001457   -0.00001179    0.00000000
     atom   17 type  1   force =    -0.00018912   -0.00000336   -0.00000336
     atom   18 type  1   force =     0.00009378   -0.00000157   -0.00000157
     atom   19 type  1   force =    -0.00018912    0.00000336   -0.00000336
     atom   20 type  1   force =     0.00009378    0.00000157   -0.00000157
     atom   21 type  1   force =    -0.00018912   -0.00000336    0.00000336
     atom   22 type  1   force =     0.00009378   -0.00000157    0.00000157
     atom   23 type  1   force =    -0.00018912    0.00000336    0.00000336
     atom   24 type  1   force =     0.00009378    0.00000157    0.00000157
     atom   25 type  1   force =     0.00024088   -0.00000000    0.00062248
     atom   26 type  1   force =     0.00023887    0.00000000   -0.00062010
     atom   27 type  1   force =    -0.00001296    0.00000000   -0.00001483
     atom   28 type  1   force =    -0.00001457    0.00000000    0.00001179
     atom   29 type  1   force =     0.00024088    0.00000000   -0.00062248
     atom   30 type  1   force =     0.00023887    0.00000000    0.00062010
     atom   31 type  1   force =    -0.00001296    0.00000000    0.00001483
     atom   32 type  1   force =    -0.00001457    0.00000000   -0.00001179
     atom   33 type  2   force =     0.00064793    0.00000000    0.00000000
     atom   34 type  2   force =     0.00055751    0.00000000    0.00000000
     atom   35 type  2   force =     0.00000669    0.00000000    0.00000000
     atom   36 type  2   force =     0.00000607    0.00000000    0.00000000
     atom   37 type  2   force =     0.00000669    0.00000000    0.00000000
     atom   38 type  2   force =     0.00000607    0.00000000    0.00000000
     atom   39 type  2   force =    -0.00001113    0.00000000    0.00000000
     atom   40 type  2   force =    -0.00001133    0.00000000    0.00000000
     atom   41 type  2   force =     0.00050438   -0.00000276    0.00000000
     atom   42 type  2   force =    -0.00024446   -0.00000020    0.00000000
     atom   43 type  2   force =     0.00050438    0.00000276   -0.00000000
     atom   44 type  2   force =    -0.00024446    0.00000020   -0.00000000
     atom   45 type  2   force =     0.00003976    0.00000017    0.00000000
     atom   46 type  2   force =    -0.00006824   -0.00000025    0.00000000
     atom   47 type  2   force =     0.00003976   -0.00000017    0.00000000
     atom   48 type  2   force =    -0.00006824    0.00000025    0.00000000
     atom   49 type  2   force =     0.00050438    0.00000000   -0.00000276
     atom   50 type  2   force =    -0.00024446    0.00000000   -0.00000020
     atom   51 type  2   force =     0.00003976    0.00000000    0.00000017
     atom   52 type  2   force =    -0.00006824    0.00000000   -0.00000025
     atom   53 type  2   force =     0.00050438    0.00000000    0.00000276
     atom   54 type  2   force =    -0.00024446    0.00000000    0.00000020
     atom   55 type  2   force =     0.00003976    0.00000000   -0.00000017
     atom   56 type  2   force =    -0.00006824    0.00000000    0.00000025
     atom   57 type  2   force =    -0.00002454   -0.00010410   -0.00010410
     atom   58 type  2   force =    -0.00002503    0.00010337    0.00010337
     atom   59 type  2   force =    -0.00002454    0.00010410   -0.00010410
     atom   60 type  2   force =    -0.00002503   -0.00010337    0.00010337
     atom   61 type  2   force =    -0.00002454   -0.00010410    0.00010410
     atom   62 type  2   force =    -0.00002503    0.00010337   -0.00010337
     atom   63 type  2   force =    -0.00002454    0.00010410    0.00010410
     atom   64 type  2   force =    -0.00002503   -0.00010337   -0.00010337

     Total force =     0.004669     Total SCF correction =     0.000025


     entering subroutine stress ...

          total   stress  (Ry/bohr**3)                   (kbar)     P=    0.17
   0.00000117   0.00000000   0.00000000          0.17      0.00      0.00
   0.00000000   0.00000110   0.00000000          0.00      0.16      0.00
   0.00000000   0.00000000   0.00000110          0.00      0.00      0.16


     Writing output data file pwscf.save
 
     init_run     :     33.22s CPU     36.26s WALL (       1 calls)
     electrons    :    739.32s CPU    803.86s WALL (       1 calls)
     forces       :      9.14s CPU      9.35s WALL (       1 calls)
     stress       :     54.33s CPU     54.51s WALL (       1 calls)

     Called by init_run:
     wfcinit      :     31.04s CPU     33.93s WALL (       1 calls)
     potinit      :      0.64s CPU      0.68s WALL (       1 calls)

     Called by electrons:
     c_bands      :    662.37s CPU    720.03s WALL (      12 calls)
     sum_band     :     60.03s CPU     65.87s WALL (      12 calls)
     v_of_rho     :      2.79s CPU      3.21s WALL (      13 calls)
     newd         :     10.93s CPU     11.13s WALL (      13 calls)
     mix_rho      :      0.43s CPU      0.50s WALL (      12 calls)

     Called by c_bands:
     init_us_2    :      2.69s CPU      2.78s WALL (     162 calls)
     cegterg      :    651.00s CPU    708.52s WALL (      72 calls)

     Called by *egterg:
     h_psi        :    303.20s CPU    335.25s WALL (     269 calls)
     s_psi        :     40.33s CPU     40.91s WALL (     269 calls)
     g_psi        :      1.79s CPU      1.79s WALL (     191 calls)
     cdiaghg      :    127.24s CPU    139.00s WALL (     263 calls)

     Called by h_psi:
     add_vuspsi   :     43.92s CPU     44.54s WALL (     269 calls)

     General routines
     calbec       :     78.18s CPU     79.17s WALL (     353 calls)
     fft          :      5.97s CPU      6.52s WALL (     193 calls)
     fftw         :    220.12s CPU    255.98s WALL (  121412 calls)
     davcio       :      0.00s CPU      0.07s WALL (       6 calls)
 
     Parallel routines
     fft_scatter  :    106.28s CPU    129.72s WALL (  121605 calls)

     PAW routines
     PAW_pot      :      3.91s CPU      4.20s WALL (      13 calls)
     PAW_symme    :      0.02s CPU      0.02s WALL (      25 calls)
 
     PWSCF        : 13m57.19s CPU    15m12.33s WALL

 
   This run was terminated on:  15: 0:25   1Mar2017            

=------------------------------------------------------------------------------=
   JOB DONE.
=------------------------------------------------------------------------------=
