
     Program PWSCF v.5.1.1 starts on  1Mar2017 at 14:46:33 

     This program is part of the open-source Quantum ESPRESSO suite
     for quantum simulation of materials; please cite
         "P. Giannozzi et al., J. Phys.:Condens. Matter 21 395502 (2009);
          URL http://www.quantum-espresso.org", 
     in publications or presentations arising from this work. More details at
     http://www.quantum-espresso.org/quote

     Parallel version (MPI), running on    16 processors
     R & G space division:  proc/nbgrp/npool/nimage =      16
     Waiting for input...
     Reading input from standard input

     Current dimensions of program PWSCF are:
     Max number of different atomic species (ntypx) = 10
     Max number of k-points (npk) =  40000
     Max angular momentum in pseudopotentials (lmaxx) =  3
               file Mg.pbe-nsp-bpaw.UPF: wavefunction(s)  Xn Xn Xn Xn Xn Xn renormalized

     Subspace diagonalization in iterative solution of the eigenvalue problem:
     scalapack distributed-memory algorithm (size of sub-group:  2*  2 procs)

 
     Parallelization info
     --------------------
     sticks:   dense  smooth     PW     G-vecs:    dense   smooth      PW
     Min         367     367     97                21123    21123    2891
     Max         368     368     98                21126    21126    2894
     Sum        5877    5877   1565               337987   337987   46297
 


     bravais-lattice index     =            0
     lattice parameter (alat)  =      16.2236  a.u.
     unit-cell volume          =    4270.1026 (a.u.)^3
     number of atoms/cell      =           64
     number of atomic types    =            2
     number of electrons       =       512.00
     number of Kohn-Sham states=          256
     kinetic-energy cutoff     =      70.0000  Ry
     charge density cutoff     =     280.0000  Ry
     convergence threshold     =      1.0E-09
     mixing beta               =       0.7000
     number of iterations used =            8  plain     mixing
     Exchange-correlation      =  SLA  PW   PBX  PBC ( 1  4  3  4 0 0)

     celldm(1)=  16.223558  celldm(2)=   0.000000  celldm(3)=   0.000000
     celldm(4)=   0.000000  celldm(5)=   0.000000  celldm(6)=   0.000000

     crystal axes: (cart. coord. in units of alat)
               a(1) = (   1.000000   0.000000   0.000000 )  
               a(2) = (   0.000000   1.000000   0.000000 )  
               a(3) = (   0.000000   0.000000   1.000000 )  

     reciprocal axes: (cart. coord. in units 2 pi/alat)
               b(1) = (  1.000000  0.000000  0.000000 )  
               b(2) = (  0.000000  1.000000  0.000000 )  
               b(3) = (  0.000000  0.000000  1.000000 )  


     PseudoPot. # 1 for Mg read from file:
     ../pseudo/Mg.pbe-nsp-bpaw.UPF
     MD5 check sum: f47e0adbead6454d4e42896e4aa7b341
     Pseudo is Projector augmented-wave + core cor, Zval = 10.0
     Generated using ATOMPAW code
     Shape of augmentation charge: BESSEL
     Using radial grid of 1171 points,  6 beta functions with: 
                l(1) =   0
                l(2) =   0
                l(3) =   0
                l(4) =   0
                l(5) =   1
                l(6) =   1
     Q(r) pseudized with 0 coefficients 


     PseudoPot. # 2 for  O read from file:
     ../pseudo/O.pbe-kjpaw.UPF
     MD5 check sum: 90f4868982d1b5f8aada8373f3a0510a
     Pseudo is Projector augmented-wave + core cor, Zval =  6.0
     Generated using "atomic" code by A. Dal Corso (espresso distribution)
     Shape of augmentation charge: BESSEL
     Using radial grid of 1095 points,  4 beta functions with: 
                l(1) =   0
                l(2) =   0
                l(3) =   1
                l(4) =   1
     Q(r) pseudized with 0 coefficients 


     atomic species   valence    mass     pseudopotential
        Mg            10.00    24.30500     Mg( 1.00)
        O              6.00    15.99940      O( 1.00)

      8 Sym. Ops. (no inversion) found



   Cartesian axes

     site n.     atom                  positions (alat units)
         1           Mg  tau(   1) = (   0.0000000   0.0000000   0.0000000  )
         2           Mg  tau(   2) = (   0.5000000   0.0000000   0.0000000  )
         3           Mg  tau(   3) = (   0.0000000   0.5000000   0.0000000  )
         4           Mg  tau(   4) = (   0.5000000   0.5000000   0.0000000  )
         5           Mg  tau(   5) = (   0.0000000   0.0000000   0.5000000  )
         6           Mg  tau(   6) = (   0.5000000   0.0000000   0.5000000  )
         7           Mg  tau(   7) = (   0.0000000   0.5000000   0.5000000  )
         8           Mg  tau(   8) = (   0.5000000   0.5000000   0.5000000  )
         9           Mg  tau(   9) = (   0.2500000   0.2500000   0.0000000  )
        10           Mg  tau(  10) = (   0.7500000   0.2500000   0.0000000  )
        11           Mg  tau(  11) = (   0.2500000   0.7500000   0.0000000  )
        12           Mg  tau(  12) = (   0.7500000   0.7500000   0.0000000  )
        13           Mg  tau(  13) = (   0.2500000   0.2500000   0.5000000  )
        14           Mg  tau(  14) = (   0.7500000   0.2500000   0.5000000  )
        15           Mg  tau(  15) = (   0.2500000   0.7500000   0.5000000  )
        16           Mg  tau(  16) = (   0.7500000   0.7500000   0.5000000  )
        17           Mg  tau(  17) = (   0.0000000   0.2500000   0.2500000  )
        18           Mg  tau(  18) = (   0.5000000   0.2500000   0.2500000  )
        19           Mg  tau(  19) = (   0.0000000   0.7500000   0.2500000  )
        20           Mg  tau(  20) = (   0.5000000   0.7500000   0.2500000  )
        21           Mg  tau(  21) = (   0.0000000   0.2500000   0.7500000  )
        22           Mg  tau(  22) = (   0.5000000   0.2500000   0.7500000  )
        23           Mg  tau(  23) = (   0.0000000   0.7500000   0.7500000  )
        24           Mg  tau(  24) = (   0.5000000   0.7500000   0.7500000  )
        25           Mg  tau(  25) = (   0.2500000   0.0000000   0.2500000  )
        26           Mg  tau(  26) = (   0.7500000   0.0000000   0.2500000  )
        27           Mg  tau(  27) = (   0.2500000   0.5000000   0.2500000  )
        28           Mg  tau(  28) = (   0.7500000   0.5000000   0.2500000  )
        29           Mg  tau(  29) = (   0.2500000   0.0000000   0.7500000  )
        30           Mg  tau(  30) = (   0.7500000   0.0000000   0.7500000  )
        31           Mg  tau(  31) = (   0.2500000   0.5000000   0.7500000  )
        32           Mg  tau(  32) = (   0.7500000   0.5000000   0.7500000  )
        33           O   tau(  33) = (   0.2512328   0.0000000   0.0000000  )
        34           O   tau(  34) = (   0.7500000   0.0000000   0.0000000  )
        35           O   tau(  35) = (   0.2500000   0.5000000   0.0000000  )
        36           O   tau(  36) = (   0.7500000   0.5000000   0.0000000  )
        37           O   tau(  37) = (   0.2500000   0.0000000   0.5000000  )
        38           O   tau(  38) = (   0.7500000   0.0000000   0.5000000  )
        39           O   tau(  39) = (   0.2500000   0.5000000   0.5000000  )
        40           O   tau(  40) = (   0.7500000   0.5000000   0.5000000  )
        41           O   tau(  41) = (   0.0000000   0.2500000   0.0000000  )
        42           O   tau(  42) = (   0.5000000   0.2500000   0.0000000  )
        43           O   tau(  43) = (   0.0000000   0.7500000   0.0000000  )
        44           O   tau(  44) = (   0.5000000   0.7500000   0.0000000  )
        45           O   tau(  45) = (   0.0000000   0.2500000   0.5000000  )
        46           O   tau(  46) = (   0.5000000   0.2500000   0.5000000  )
        47           O   tau(  47) = (   0.0000000   0.7500000   0.5000000  )
        48           O   tau(  48) = (   0.5000000   0.7500000   0.5000000  )
        49           O   tau(  49) = (   0.0000000   0.0000000   0.2500000  )
        50           O   tau(  50) = (   0.5000000   0.0000000   0.2500000  )
        51           O   tau(  51) = (   0.0000000   0.5000000   0.2500000  )
        52           O   tau(  52) = (   0.5000000   0.5000000   0.2500000  )
        53           O   tau(  53) = (   0.0000000   0.0000000   0.7500000  )
        54           O   tau(  54) = (   0.5000000   0.0000000   0.7500000  )
        55           O   tau(  55) = (   0.0000000   0.5000000   0.7500000  )
        56           O   tau(  56) = (   0.5000000   0.5000000   0.7500000  )
        57           O   tau(  57) = (   0.2500000   0.2500000   0.2500000  )
        58           O   tau(  58) = (   0.7500000   0.2500000   0.2500000  )
        59           O   tau(  59) = (   0.2500000   0.7500000   0.2500000  )
        60           O   tau(  60) = (   0.7500000   0.7500000   0.2500000  )
        61           O   tau(  61) = (   0.2500000   0.2500000   0.7500000  )
        62           O   tau(  62) = (   0.7500000   0.2500000   0.7500000  )
        63           O   tau(  63) = (   0.2500000   0.7500000   0.7500000  )
        64           O   tau(  64) = (   0.7500000   0.7500000   0.7500000  )

     number of k points=     6
                       cart. coord. in units 2pi/alat
        k(    1) = (   0.1250000   0.1250000   0.1250000), wk =   0.2500000
        k(    2) = (   0.1250000   0.1250000   0.3750000), wk =   0.5000000
        k(    3) = (   0.1250000   0.3750000   0.3750000), wk =   0.2500000
        k(    4) = (   0.3750000   0.3750000   0.3750000), wk =   0.2500000
        k(    5) = (   0.3750000  -0.1250000   0.1250000), wk =   0.2500000
        k(    6) = (   0.3750000  -0.3750000   0.1250000), wk =   0.5000000

     Dense  grid:   337987 G-vectors     FFT dimensions: (  90,  90,  90)

     Largest allocated arrays     est. size (Mb)     dimensions
        Kohn-Sham Wavefunctions        10.33 Mb     (    2645,  256)
        NL pseudopotentials            23.25 Mb     (    2645,  576)
        Each V/rho on FFT grid          0.74 Mb     (   48600)
        Each G-vector array             0.16 Mb     (   21125)
        G-vector shells                 0.01 Mb     (    1499)
     Largest temporary arrays     est. size (Mb)     dimensions
        Auxiliary wavefunctions        41.33 Mb     (    2645, 1024)
        Each subspace H/S matrix        4.00 Mb     (     512,  512)
        Each <psi_i|beta_j> matrix      2.25 Mb     (     576,  256)
        Arrays for rho mixing           5.93 Mb     (   48600,    8)

     Initial potential from superposition of free atoms

     starting charge  511.97358, renormalised to  512.00000
     Starting wfc are  448 randomized atomic wfcs
     Checking if some PAW data can be deallocated... 

     total cpu time spent up to now is       16.7 secs

     Self-consistent Calculation

     iteration #  1     ecut=    70.00 Ry     beta=0.70
     Davidson diagonalization with overlap
     ethr =  1.00E-02,  avg # of iterations =  1.5

     total cpu time spent up to now is       39.2 secs

     total energy              =   -5852.01999575 Ry
     Harris-Foulkes estimate   =   -5863.52613011 Ry
     estimated scf accuracy    <      14.57347252 Ry

     iteration #  2     ecut=    70.00 Ry     beta=0.70
     Davidson diagonalization with overlap
     ethr =  2.85E-03,  avg # of iterations =  3.0

     total cpu time spent up to now is       75.6 secs

     total energy              =   -5856.15930698 Ry
     Harris-Foulkes estimate   =   -5864.96384616 Ry
     estimated scf accuracy    <      18.24692879 Ry

     iteration #  3     ecut=    70.00 Ry     beta=0.70
     Davidson diagonalization with overlap
     ethr =  2.85E-03,  avg # of iterations =  3.0

     total cpu time spent up to now is      108.7 secs

     total energy              =   -5859.61502343 Ry
     Harris-Foulkes estimate   =   -5859.62322074 Ry
     estimated scf accuracy    <       0.05141044 Ry

     iteration #  4     ecut=    70.00 Ry     beta=0.70
     Davidson diagonalization with overlap
     ethr =  1.00E-05,  avg # of iterations =  3.5

     total cpu time spent up to now is      149.4 secs

     total energy              =   -5859.65496058 Ry
     Harris-Foulkes estimate   =   -5859.65785925 Ry
     estimated scf accuracy    <       0.00925660 Ry

     iteration #  5     ecut=    70.00 Ry     beta=0.70
     Davidson diagonalization with overlap
     ethr =  1.81E-06,  avg # of iterations =  2.0

     total cpu time spent up to now is      177.5 secs

     total energy              =   -5859.65523150 Ry
     Harris-Foulkes estimate   =   -5859.65588110 Ry
     estimated scf accuracy    <       0.00225484 Ry

     iteration #  6     ecut=    70.00 Ry     beta=0.70
     Davidson diagonalization with overlap
     ethr =  4.40E-07,  avg # of iterations =  2.0

     total cpu time spent up to now is      205.3 secs

     total energy              =   -5859.65537068 Ry
     Harris-Foulkes estimate   =   -5859.65546832 Ry
     estimated scf accuracy    <       0.00029792 Ry

     iteration #  7     ecut=    70.00 Ry     beta=0.70
     Davidson diagonalization with overlap
     ethr =  5.82E-08,  avg # of iterations =  3.0

     total cpu time spent up to now is      239.9 secs

     total energy              =   -5859.65544669 Ry
     Harris-Foulkes estimate   =   -5859.65545472 Ry
     estimated scf accuracy    <       0.00002375 Ry

     iteration #  8     ecut=    70.00 Ry     beta=0.70
     Davidson diagonalization with overlap
     ethr =  4.64E-09,  avg # of iterations =  2.8

     total cpu time spent up to now is      271.6 secs

     total energy              =   -5859.65544808 Ry
     Harris-Foulkes estimate   =   -5859.65545088 Ry
     estimated scf accuracy    <       0.00000796 Ry

     iteration #  9     ecut=    70.00 Ry     beta=0.70
     Davidson diagonalization with overlap
     ethr =  1.55E-09,  avg # of iterations =  2.2

     total cpu time spent up to now is      300.8 secs

     total energy              =   -5859.65544878 Ry
     Harris-Foulkes estimate   =   -5859.65544908 Ry
     estimated scf accuracy    <       0.00000070 Ry

     iteration # 10     ecut=    70.00 Ry     beta=0.70
     Davidson diagonalization with overlap
     ethr =  1.36E-10,  avg # of iterations =  3.0

     total cpu time spent up to now is      336.1 secs

     total energy              =   -5859.65544891 Ry
     Harris-Foulkes estimate   =   -5859.65544892 Ry
     estimated scf accuracy    <       0.00000002 Ry

     iteration # 11     ecut=    70.00 Ry     beta=0.70
     Davidson diagonalization with overlap
     ethr =  3.14E-12,  avg # of iterations =  3.0

     total cpu time spent up to now is      386.3 secs

     total energy              =   -5859.65544891 Ry
     Harris-Foulkes estimate   =   -5859.65544892 Ry
     estimated scf accuracy    <          4.4E-09 Ry

     iteration # 12     ecut=    70.00 Ry     beta=0.70
     Davidson diagonalization with overlap
     ethr =  8.52E-13,  avg # of iterations =  3.0

     total cpu time spent up to now is      418.6 secs

     End of self-consistent calculation

          k = 0.1250 0.1250 0.1250 ( 42250 PWs)   bands (ev):

   -63.2472 -63.2354 -63.2329 -63.2326 -63.2318 -63.2318 -63.2313 -63.2305
   -63.2302 -63.2299 -63.2298 -63.2295 -63.2293 -63.2291 -63.2291 -63.2291
   -63.2291 -63.2290 -63.2288 -63.2287 -63.2284 -63.2278 -63.2271 -63.2271
   -63.2266 -63.2262 -63.2259 -63.2259 -63.2258 -63.2243 -63.2239 -63.2082
   -30.3637 -30.3635 -30.3630 -30.3617 -30.3541 -30.3540 -30.3539 -30.3486
   -30.3478 -30.3474 -30.3460 -30.3453 -30.3452 -30.3452 -30.3449 -30.3439
   -30.3431 -30.3422 -30.3411 -30.3410 -30.3408 -30.3399 -30.3397 -30.3391
   -30.3388 -30.3350 -30.3346 -30.3344 -30.3333 -30.3333 -30.3331 -30.3325
   -30.3321 -30.3316 -30.3270 -30.3269 -30.3258 -30.3242 -30.3236 -30.3233
   -30.3224 -30.3220 -30.3218 -30.3210 -30.3209 -30.3208 -30.3203 -30.3201
   -30.3199 -30.3194 -30.3191 -30.3191 -30.3188 -30.3186 -30.3182 -30.3181
   -30.3173 -30.3160 -30.3147 -30.3145 -30.3143 -30.3109 -30.3105 -30.3101
   -30.3098 -30.3087 -30.3086 -30.3081 -30.3075 -30.3067 -30.3058 -30.3055
   -30.3054 -30.3052 -30.3050 -30.3050 -30.3047 -30.3046 -30.3043 -30.3042
   -30.3042 -30.3040 -30.3039 -30.3036 -30.3036 -30.3032 -30.3030 -30.3025
   -30.3016 -30.3010 -30.2993 -30.2979 -30.2974 -30.2923 -30.2916 -30.2914
    -7.8720  -7.3409  -7.3405  -7.3401  -7.0750  -7.0744  -7.0739  -6.9663
    -6.9657  -6.9651  -6.7958  -6.7951  -6.7944  -6.7943  -6.7933  -6.7921
    -6.7883  -6.7300  -6.7292  -6.7290  -6.6765  -6.6759  -6.6751  -6.5399
    -6.5394  -6.5390  -6.4904  -6.4892  -6.4891  -6.4891  -6.4886  -6.4866
     4.7365   4.7367   4.7369   4.8008   5.2480   5.2481   5.2483   5.6103
     5.6107   5.6110   5.6489   5.6500   5.6502   5.6504   5.6507   5.6520
     5.8331   5.8336   5.8341   5.9968   5.9969   5.9972   5.9973   5.9976
     5.9977   6.1631   6.1638   6.1645   6.4784   6.4786   6.4793   6.4794
     6.4803   6.4803   6.7814   6.7817   6.7821   6.8617   6.8622   6.8628
     7.2488   7.2492   7.2499   7.2501   7.2511   7.2520   7.4845   7.4855
     7.4862   7.4863   7.4866   7.4870   7.6152   7.6155   7.6158   7.6565
     7.6574   7.6575   7.7824   7.7824   7.7830   8.1702   8.1702   8.1703
     8.2192   8.2197   8.2202   8.2951   8.2958   8.2962   8.3008   8.3014
     8.3018   8.3640   8.3641   8.3647   8.3647   8.3659   8.3664   8.3982
     8.3983   8.3988   8.4401   8.4411   8.4423   8.4472   8.4473   8.4578
     8.4584   8.4589   8.5462   8.5467   8.5472   8.7481   8.9938   8.9938

          k = 0.1250 0.1250 0.3750 ( 42264 PWs)   bands (ev):

   -63.2472 -63.2349 -63.2338 -63.2325 -63.2321 -63.2314 -63.2308 -63.2307
   -63.2303 -63.2301 -63.2298 -63.2297 -63.2295 -63.2292 -63.2292 -63.2290
   -63.2289 -63.2289 -63.2288 -63.2282 -63.2280 -63.2278 -63.2274 -63.2274
   -63.2264 -63.2262 -63.2261 -63.2259 -63.2257 -63.2242 -63.2241 -63.2082
   -30.3609 -30.3601 -30.3594 -30.3575 -30.3543 -30.3539 -30.3530 -30.3515
   -30.3502 -30.3501 -30.3488 -30.3476 -30.3470 -30.3461 -30.3454 -30.3450
   -30.3441 -30.3437 -30.3432 -30.3427 -30.3415 -30.3414 -30.3413 -30.3397
   -30.3378 -30.3371 -30.3357 -30.3357 -30.3337 -30.3334 -30.3316 -30.3310
   -30.3306 -30.3299 -30.3289 -30.3283 -30.3279 -30.3272 -30.3258 -30.3254
   -30.3236 -30.3233 -30.3212 -30.3197 -30.3194 -30.3187 -30.3182 -30.3178
   -30.3175 -30.3162 -30.3159 -30.3157 -30.3152 -30.3147 -30.3143 -30.3139
   -30.3136 -30.3135 -30.3128 -30.3125 -30.3119 -30.3116 -30.3112 -30.3111
   -30.3106 -30.3099 -30.3097 -30.3093 -30.3089 -30.3080 -30.3079 -30.3078
   -30.3076 -30.3071 -30.3069 -30.3061 -30.3056 -30.3051 -30.3049 -30.3046
   -30.3043 -30.3042 -30.3038 -30.3037 -30.3031 -30.3028 -30.3020 -30.3016
   -30.3015 -30.3008 -30.3005 -30.2987 -30.2981 -30.2928 -30.2921 -30.2917
    -7.7716  -7.5853  -7.2671  -7.2665  -7.1338  -7.1331  -7.0177  -7.0170
    -6.9265  -6.9168  -6.9159  -6.8605  -6.8284  -6.7758  -6.7750  -6.7489
    -6.7482  -6.6939  -6.6792  -6.6472  -6.6461  -6.6406  -6.5816  -6.5805
    -6.5429  -6.5416  -6.5252  -6.5245  -6.5191  -6.5177  -6.5040  -6.5034
     4.8906   4.9429   4.9436   5.0678   5.2264   5.2998   5.3010   5.3823
     5.3825   5.3940   5.4687   5.6393   5.6396   5.6414   5.6417   5.6966
     5.7222   5.7226   5.7866   5.7867   5.8121   5.8129   5.9220   5.9224
     6.0181   6.0190   6.1506   6.1513   6.3803   6.3808   6.5148   6.5155
     6.5460   6.5467   6.6691   6.6702   6.9273   6.9281   6.9326   6.9334
     7.3536   7.3545   7.3580   7.5023   7.5918   7.5926   7.6396   7.6412
     7.6480   7.6492   7.7296   7.7304   7.7386   7.7389   7.7524   7.8015
     7.8020   7.8617   7.8967   7.9305   7.9670   7.9783   7.9785   7.9824
     7.9837   8.0126   8.0568   8.0580   8.0750   8.0751   8.1106   8.1107
     8.2223   8.2676   8.2696   8.2771   8.2773   8.3134   8.3197   8.3360
     8.3378   8.3537   8.3692   8.3699   8.3778   8.3784   8.4927   8.5276
     8.5422   8.5438   8.5995   8.6007   8.6939   8.7034   8.8855   8.9078

          k = 0.1250 0.3750 0.3750 ( 42205 PWs)   bands (ev):

   -63.2472 -63.2345 -63.2338 -63.2332 -63.2325 -63.2311 -63.2306 -63.2306
   -63.2302 -63.2302 -63.2301 -63.2300 -63.2298 -63.2294 -63.2293 -63.2285
   -63.2285 -63.2284 -63.2282 -63.2282 -63.2281 -63.2280 -63.2277 -63.2277
   -63.2263 -63.2262 -63.2261 -63.2260 -63.2257 -63.2242 -63.2242 -63.2082
   -30.3591 -30.3582 -30.3570 -30.3550 -30.3529 -30.3525 -30.3521 -30.3516
   -30.3507 -30.3494 -30.3483 -30.3479 -30.3479 -30.3474 -30.3464 -30.3457
   -30.3455 -30.3453 -30.3450 -30.3450 -30.3440 -30.3434 -30.3433 -30.3430
   -30.3415 -30.3411 -30.3401 -30.3354 -30.3336 -30.3323 -30.3320 -30.3292
   -30.3274 -30.3263 -30.3260 -30.3257 -30.3256 -30.3241 -30.3228 -30.3217
   -30.3210 -30.3209 -30.3207 -30.3203 -30.3198 -30.3191 -30.3189 -30.3183
   -30.3174 -30.3166 -30.3165 -30.3158 -30.3154 -30.3153 -30.3153 -30.3145
   -30.3139 -30.3138 -30.3127 -30.3120 -30.3120 -30.3114 -30.3114 -30.3107
   -30.3107 -30.3105 -30.3102 -30.3092 -30.3088 -30.3084 -30.3084 -30.3077
   -30.3076 -30.3075 -30.3069 -30.3068 -30.3064 -30.3062 -30.3060 -30.3056
   -30.3050 -30.3048 -30.3040 -30.3038 -30.3033 -30.3033 -30.3019 -30.3016
   -30.3016 -30.3010 -30.3000 -30.2980 -30.2970 -30.2923 -30.2920 -30.2917
    -7.6757  -7.4983  -7.4983  -7.3389  -7.1989  -7.0773  -7.0772  -6.9785
    -6.9669  -6.8790  -6.8790  -6.8165  -6.7892  -6.7891  -6.7225  -6.7222
    -6.6618  -6.6611  -6.6491  -6.6491  -6.6171  -6.6169  -6.6066  -6.6064
    -6.5789  -6.5788  -6.5623  -6.5614  -6.5362  -6.5180  -6.5126  -6.5126
     5.0336   5.0336   5.1771   5.3223   5.3223   5.3296   5.3296   5.3791
     5.4672   5.4673   5.5080   5.5199   5.5201   5.5510   5.5512   5.6040
     5.6040   5.6352   5.6356   5.6693   5.6693   5.7366   5.7366   5.7973
     5.7974   5.8047   5.8185   6.2002   6.3545   6.5630   6.5630   6.6146
     6.8442   6.8447   6.9537   7.0830   7.0830   7.0939   7.0939   7.1187
     7.1187   7.2681   7.2681   7.3449   7.3456   7.4824   7.4831   7.6294
     7.6299   7.7063   7.7063   7.7421   7.7556   7.7556   7.8288   7.8290
     7.8810   7.8813   7.8827   7.8838   7.8841   7.9255   7.9259   8.0072
     8.0165   8.0167   8.0306   8.0310   8.0661   8.0777   8.1398   8.1398
     8.1585   8.1585   8.2380   8.2380   8.2500   8.2503   8.2612   8.2970
     8.3255   8.3256   8.3290   8.4083   8.4531   8.4652   8.4669   8.5523
     8.5524   8.5546   8.5547   8.7611   8.7718   8.7815   8.7816   8.9149

          k = 0.3750 0.3750 0.3750 ( 42235 PWs)   bands (ev):

   -63.2472 -63.2342 -63.2337 -63.2330 -63.2324 -63.2320 -63.2312 -63.2311
   -63.2305 -63.2302 -63.2301 -63.2296 -63.2293 -63.2289 -63.2289 -63.2285
   -63.2285 -63.2283 -63.2282 -63.2282 -63.2281 -63.2277 -63.2277 -63.2277
   -63.2265 -63.2263 -63.2262 -63.2261 -63.2257 -63.2242 -63.2242 -63.2082
   -30.3577 -30.3574 -30.3566 -30.3540 -30.3522 -30.3519 -30.3509 -30.3501
   -30.3498 -30.3498 -30.3494 -30.3491 -30.3485 -30.3483 -30.3481 -30.3480
   -30.3478 -30.3477 -30.3475 -30.3472 -30.3456 -30.3453 -30.3447 -30.3445
   -30.3420 -30.3348 -30.3347 -30.3343 -30.3284 -30.3281 -30.3269 -30.3259
   -30.3258 -30.3257 -30.3254 -30.3254 -30.3252 -30.3244 -30.3235 -30.3234
   -30.3233 -30.3232 -30.3225 -30.3198 -30.3197 -30.3188 -30.3180 -30.3177
   -30.3175 -30.3169 -30.3164 -30.3158 -30.3155 -30.3155 -30.3150 -30.3149
   -30.3148 -30.3144 -30.3138 -30.3133 -30.3132 -30.3129 -30.3125 -30.3125
   -30.3116 -30.3115 -30.3111 -30.3110 -30.3102 -30.3101 -30.3099 -30.3097
   -30.3095 -30.3089 -30.3087 -30.3083 -30.3083 -30.3059 -30.3057 -30.3053
   -30.3038 -30.3032 -30.3024 -30.3022 -30.3015 -30.3012 -30.3004 -30.3001
   -30.2997 -30.2993 -30.2987 -30.2985 -30.2978 -30.2921 -30.2917 -30.2915
    -7.5845  -7.4170  -7.4166  -7.4162  -7.2679  -7.2674  -7.2670  -7.1389
    -6.7579  -6.7573  -6.7566  -6.7065  -6.7054  -6.7049  -6.7047  -6.7040
    -6.7028  -6.6801  -6.6792  -6.6786  -6.6015  -6.6013  -6.6005  -6.5851
    -6.5846  -6.5835  -6.5793  -6.5785  -6.5781  -6.5780  -6.5772  -6.5756
     5.1882   5.1887   5.1892   5.4130   5.4134   5.4137   5.4332   5.4338
     5.4341   5.4342   5.4345   5.4352   5.4977   5.4981   5.4986   5.5339
     5.5340   5.5342   5.5343   5.5346   5.5348   5.5738   5.5743   5.5749
     5.7573   6.2270   6.2274   6.2279   6.7244   6.7246   6.7248   6.9514
     6.9520   6.9527   6.9575   6.9579   6.9587   6.9587   6.9601   6.9603
     7.1949   7.1964   7.1969   7.2943   7.4345   7.4353   7.4361   7.4362
     7.4371   7.4386   7.5492   7.5505   7.5510   7.5780   7.5786   7.5792
     7.9512   7.9514   7.9518   7.9624   7.9624   7.9629   7.9629   7.9636
     7.9641   8.0820   8.0825   8.0831   8.1135   8.1136   8.1141   8.1148
     8.1148   8.1152   8.1153   8.1161   8.1169   8.2059   8.2059   8.2064
     8.5003   8.5007   8.5012   8.5990   8.5990   8.6639   8.6645   8.6650
     8.7028   8.7033   8.7039   8.7042   8.7055   8.7068   8.8249   8.8250

          k = 0.3750-0.1250 0.1250 ( 42264 PWs)   bands (ev):

   -63.2472 -63.2350 -63.2329 -63.2328 -63.2325 -63.2318 -63.2312 -63.2304
   -63.2304 -63.2302 -63.2295 -63.2294 -63.2294 -63.2291 -63.2291 -63.2291
   -63.2291 -63.2291 -63.2286 -63.2285 -63.2282 -63.2276 -63.2271 -63.2271
   -63.2266 -63.2265 -63.2260 -63.2260 -63.2258 -63.2243 -63.2239 -63.2082
   -30.3610 -30.3607 -30.3596 -30.3578 -30.3528 -30.3524 -30.3523 -30.3519
   -30.3508 -30.3507 -30.3485 -30.3469 -30.3458 -30.3457 -30.3456 -30.3453
   -30.3448 -30.3443 -30.3438 -30.3433 -30.3427 -30.3420 -30.3411 -30.3395
   -30.3371 -30.3369 -30.3356 -30.3353 -30.3344 -30.3334 -30.3316 -30.3315
   -30.3305 -30.3300 -30.3290 -30.3287 -30.3273 -30.3273 -30.3256 -30.3252
   -30.3243 -30.3227 -30.3202 -30.3197 -30.3196 -30.3187 -30.3182 -30.3180
   -30.3161 -30.3161 -30.3160 -30.3154 -30.3151 -30.3150 -30.3145 -30.3145
   -30.3143 -30.3135 -30.3128 -30.3121 -30.3120 -30.3116 -30.3113 -30.3104
   -30.3103 -30.3099 -30.3096 -30.3095 -30.3089 -30.3085 -30.3081 -30.3080
   -30.3072 -30.3067 -30.3065 -30.3061 -30.3057 -30.3057 -30.3050 -30.3046
   -30.3046 -30.3045 -30.3041 -30.3037 -30.3031 -30.3030 -30.3021 -30.3016
   -30.3015 -30.3006 -30.3004 -30.2984 -30.2983 -30.2925 -30.2920 -30.2919
    -7.7716  -7.5853  -7.2668  -7.2668  -7.1334  -7.1334  -7.0174  -7.0174
    -6.9266  -6.9163  -6.9162  -6.8604  -6.8284  -6.7756  -6.7756  -6.7488
    -6.7478  -6.6941  -6.6789  -6.6470  -6.6467  -6.6403  -6.5811  -6.5811
    -6.5421  -6.5421  -6.5251  -6.5249  -6.5188  -6.5186  -6.5040  -6.5027
     4.8906   4.9432   4.9433   5.0678   5.2265   5.3003   5.3006   5.3824
     5.3824   5.3939   5.4687   5.6395   5.6396   5.6414   5.6415   5.6967
     5.7224   5.7224   5.7866   5.7867   5.8125   5.8125   5.9222   5.9222
     6.0186   6.0186   6.1509   6.1509   6.3805   6.3805   6.5152   6.5152
     6.5464   6.5464   6.6696   6.6696   6.9276   6.9277   6.9330   6.9332
     7.3538   7.3542   7.3581   7.5023   7.5919   7.5925   7.6402   7.6406
     7.6485   7.6486   7.7298   7.7305   7.7387   7.7388   7.7521   7.8017
     7.8017   7.8617   7.8967   7.9305   7.9671   7.9783   7.9784   7.9831
     7.9832   8.0126   8.0573   8.0577   8.0749   8.0750   8.1106   8.1106
     8.2224   8.2686   8.2686   8.2773   8.2773   8.3134   8.3195   8.3369
     8.3369   8.3537   8.3686   8.3693   8.3778   8.3795   8.4926   8.5278
     8.5429   8.5430   8.6001   8.6001   8.6939   8.7034   8.8856   8.9078

          k = 0.3750-0.3750 0.1250 ( 42205 PWs)   bands (ev):

   -63.2472 -63.2346 -63.2337 -63.2324 -63.2324 -63.2320 -63.2315 -63.2307
   -63.2302 -63.2301 -63.2298 -63.2296 -63.2293 -63.2291 -63.2290 -63.2289
   -63.2288 -63.2288 -63.2286 -63.2281 -63.2280 -63.2276 -63.2274 -63.2274
   -63.2265 -63.2264 -63.2261 -63.2261 -63.2257 -63.2243 -63.2241 -63.2082
   -30.3591 -30.3587 -30.3573 -30.3550 -30.3525 -30.3519 -30.3517 -30.3505
   -30.3499 -30.3495 -30.3486 -30.3484 -30.3482 -30.3474 -30.3471 -30.3466
   -30.3461 -30.3456 -30.3449 -30.3447 -30.3440 -30.3435 -30.3430 -30.3421
   -30.3418 -30.3412 -30.3401 -30.3352 -30.3337 -30.3330 -30.3315 -30.3293
   -30.3275 -30.3267 -30.3264 -30.3258 -30.3251 -30.3242 -30.3225 -30.3217
   -30.3213 -30.3208 -30.3206 -30.3201 -30.3193 -30.3191 -30.3184 -30.3178
   -30.3171 -30.3169 -30.3165 -30.3157 -30.3154 -30.3147 -30.3144 -30.3142
   -30.3138 -30.3134 -30.3132 -30.3128 -30.3124 -30.3117 -30.3114 -30.3114
   -30.3108 -30.3107 -30.3101 -30.3097 -30.3095 -30.3089 -30.3085 -30.3081
   -30.3076 -30.3072 -30.3069 -30.3068 -30.3067 -30.3064 -30.3062 -30.3055
   -30.3052 -30.3044 -30.3041 -30.3036 -30.3032 -30.3031 -30.3021 -30.3016
   -30.3000 -30.2997 -30.2993 -30.2988 -30.2978 -30.2927 -30.2921 -30.2915
    -7.6757  -7.4986  -7.4981  -7.3388  -7.1990  -7.0777  -7.0769  -6.9785
    -6.9669  -6.8795  -6.8785  -6.8165  -6.7896  -6.7887  -6.7227  -6.7218
    -6.6620  -6.6615  -6.6495  -6.6483  -6.6172  -6.6166  -6.6069  -6.6059
    -6.5795  -6.5784  -6.5622  -6.5616  -6.5364  -6.5186  -6.5129  -6.5115
     5.0335   5.0337   5.1771   5.3221   5.3225   5.3294   5.3299   5.3791
     5.4669   5.4677   5.5081   5.5197   5.5201   5.5510   5.5512   5.6036
     5.6043   5.6348   5.6360   5.6689   5.6698   5.7365   5.7367   5.7971
     5.7977   5.8046   5.8185   6.2002   6.3545   6.5617   6.5642   6.6146
     6.8441   6.8448   6.9537   7.0823   7.0837   7.0936   7.0941   7.1186
     7.1189   7.2672   7.2689   7.3444   7.3461   7.4821   7.4834   7.6293
     7.6300   7.7060   7.7067   7.7421   7.7549   7.7563   7.8287   7.8291
     7.8805   7.8815   7.8831   7.8834   7.8842   7.9254   7.9259   8.0073
     8.0159   8.0170   8.0305   8.0312   8.0663   8.0776   8.1387   8.1408
     8.1577   8.1592   8.2379   8.2380   8.2500   8.2504   8.2613   8.2970
     8.3251   8.3258   8.3292   8.4083   8.4531   8.4649   8.4671   8.5524
     8.5532   8.5537   8.5549   8.7610   8.7718   8.7808   8.7823   8.9149

     highest occupied level (ev):     8.9938

!    total energy              =   -5859.65544891 Ry
     Harris-Foulkes estimate   =   -5859.65544891 Ry
     estimated scf accuracy    <          1.3E-10 Ry

     total all-electron energy =     -9339.999330 Ry

     The total energy is the sum of the following terms:

     one-electron contribution =   -2968.58819749 Ry
     hartree contribution      =     784.71020175 Ry
     xc contribution           =    -624.01196660 Ry
     ewald contribution        =   -2975.65855490 Ry
     one-center paw contrib.   =     -76.10693167 Ry

     convergence has been achieved in  12 iterations

     Forces acting on atoms (Ry/au):

     atom    1 type  1   force =     0.00057421    0.00000000    0.00000000
     atom    2 type  1   force =     0.00065395    0.00000000    0.00000000
     atom    3 type  1   force =     0.00001482    0.00000000    0.00000000
     atom    4 type  1   force =     0.00001349    0.00000000    0.00000000
     atom    5 type  1   force =     0.00001482    0.00000000    0.00000000
     atom    6 type  1   force =     0.00001349    0.00000000    0.00000000
     atom    7 type  1   force =    -0.00000324    0.00000000    0.00000000
     atom    8 type  1   force =    -0.00000173    0.00000000    0.00000000
     atom    9 type  1   force =     0.00051074   -0.00000155   -0.00000000
     atom   10 type  1   force =    -0.00023457   -0.00000346    0.00000000
     atom   11 type  1   force =     0.00051074    0.00000155    0.00000000
     atom   12 type  1   force =    -0.00023457    0.00000346   -0.00000000
     atom   13 type  1   force =     0.00004559   -0.00000274   -0.00000000
     atom   14 type  1   force =    -0.00005806   -0.00000130    0.00000000
     atom   15 type  1   force =     0.00004559    0.00000274    0.00000000
     atom   16 type  1   force =    -0.00005806    0.00000130    0.00000000
     atom   17 type  1   force =    -0.00001765    0.00010094    0.00010094
     atom   18 type  1   force =    -0.00001590   -0.00010672   -0.00010672
     atom   19 type  1   force =    -0.00001765   -0.00010094    0.00010094
     atom   20 type  1   force =    -0.00001590    0.00010672   -0.00010672
     atom   21 type  1   force =    -0.00001765    0.00010094   -0.00010094
     atom   22 type  1   force =    -0.00001590   -0.00010672    0.00010672
     atom   23 type  1   force =    -0.00001765   -0.00010094   -0.00010094
     atom   24 type  1   force =    -0.00001590    0.00010672    0.00010672
     atom   25 type  1   force =     0.00051074   -0.00000000   -0.00000155
     atom   26 type  1   force =    -0.00023457    0.00000000   -0.00000346
     atom   27 type  1   force =     0.00004559    0.00000000   -0.00000274
     atom   28 type  1   force =    -0.00005806    0.00000000   -0.00000130
     atom   29 type  1   force =     0.00051074    0.00000000    0.00000155
     atom   30 type  1   force =    -0.00023457   -0.00000000    0.00000346
     atom   31 type  1   force =     0.00004559    0.00000000    0.00000274
     atom   32 type  1   force =    -0.00005806    0.00000000    0.00000130
     atom   33 type  2   force =    -0.00455427    0.00000000    0.00000000
     atom   34 type  2   force =     0.00025210    0.00000000    0.00000000
     atom   35 type  2   force =    -0.00012395    0.00000000    0.00000000
     atom   36 type  2   force =     0.00017062    0.00000000    0.00000000
     atom   37 type  2   force =    -0.00012395    0.00000000    0.00000000
     atom   38 type  2   force =     0.00017062    0.00000000    0.00000000
     atom   39 type  2   force =    -0.00004399    0.00000000    0.00000000
     atom   40 type  2   force =     0.00003760    0.00000000    0.00000000
     atom   41 type  2   force =     0.00028682   -0.00039627    0.00000000
     atom   42 type  2   force =     0.00028771    0.00039966   -0.00000000
     atom   43 type  2   force =     0.00028682    0.00039627    0.00000000
     atom   44 type  2   force =     0.00028771   -0.00039966    0.00000000
     atom   45 type  2   force =    -0.00000785   -0.00004726    0.00000000
     atom   46 type  2   force =    -0.00000851    0.00004725    0.00000000
     atom   47 type  2   force =    -0.00000785    0.00004726    0.00000000
     atom   48 type  2   force =    -0.00000851   -0.00004725    0.00000000
     atom   49 type  2   force =     0.00028682    0.00000000   -0.00039627
     atom   50 type  2   force =     0.00028771    0.00000000    0.00039966
     atom   51 type  2   force =    -0.00000785    0.00000000   -0.00004726
     atom   52 type  2   force =    -0.00000851    0.00000000    0.00004725
     atom   53 type  2   force =     0.00028682    0.00000000    0.00039627
     atom   54 type  2   force =     0.00028771    0.00000000   -0.00039966
     atom   55 type  2   force =    -0.00000785    0.00000000    0.00004726
     atom   56 type  2   force =    -0.00000851    0.00000000   -0.00004725
     atom   57 type  2   force =    -0.00017575   -0.00000083   -0.00000083
     atom   58 type  2   force =     0.00012129    0.00000009    0.00000009
     atom   59 type  2   force =    -0.00017575    0.00000083   -0.00000083
     atom   60 type  2   force =     0.00012129   -0.00000009    0.00000009
     atom   61 type  2   force =    -0.00017575   -0.00000083    0.00000083
     atom   62 type  2   force =     0.00012129    0.00000009   -0.00000009
     atom   63 type  2   force =    -0.00017575    0.00000083    0.00000083
     atom   64 type  2   force =     0.00012129   -0.00000009   -0.00000009

     Total force =     0.005024     Total SCF correction =     0.000026


     entering subroutine stress ...

          total   stress  (Ry/bohr**3)                   (kbar)     P=    0.16
   0.00000116   0.00000000   0.00000000          0.17      0.00      0.00
   0.00000000   0.00000109   0.00000000          0.00      0.16      0.00
   0.00000000   0.00000000   0.00000109          0.00      0.00      0.16


     Writing output data file pwscf.save
 
     init_run     :     13.59s CPU     16.08s WALL (       1 calls)
     electrons    :    345.28s CPU    402.04s WALL (       1 calls)
     forces       :      3.23s CPU      3.29s WALL (       1 calls)
     stress       :     20.51s CPU     20.66s WALL (       1 calls)

     Called by init_run:
     wfcinit      :     12.00s CPU     13.95s WALL (       1 calls)
     potinit      :      0.40s CPU      0.55s WALL (       1 calls)

     Called by electrons:
     c_bands      :    303.68s CPU    355.48s WALL (      12 calls)
     sum_band     :     33.44s CPU     37.89s WALL (      12 calls)
     v_of_rho     :      0.83s CPU      1.09s WALL (      13 calls)
     newd         :      5.51s CPU      5.71s WALL (      13 calls)
     mix_rho      :      0.13s CPU      0.17s WALL (      12 calls)

     Called by c_bands:
     init_us_2    :      0.86s CPU      0.90s WALL (     162 calls)
     cegterg      :    298.76s CPU    350.42s WALL (      72 calls)

     Called by *egterg:
     h_psi        :    155.98s CPU    180.22s WALL (     270 calls)
     s_psi        :     16.42s CPU     17.09s WALL (     270 calls)
     g_psi        :      1.02s CPU      1.02s WALL (     192 calls)
     cdiaghg      :     76.23s CPU     98.99s WALL (     264 calls)

     Called by h_psi:
     add_vuspsi   :     16.40s CPU     17.02s WALL (     270 calls)

     General routines
     calbec       :     25.64s CPU     25.95s WALL (     354 calls)
     fft          :      1.48s CPU      1.87s WALL (     193 calls)
     fftw         :    136.47s CPU    163.89s WALL (  120954 calls)
     davcio       :      0.00s CPU      0.03s WALL (       6 calls)
 
     Parallel routines
     fft_scatter  :     44.90s CPU     64.72s WALL (  121147 calls)

     PAW routines
     PAW_pot      :      2.37s CPU      2.47s WALL (      13 calls)
     PAW_symme    :      0.01s CPU      0.01s WALL (      25 calls)
 
     PWSCF        :  6m25.38s CPU     7m26.97s WALL

 
   This run was terminated on:  14:54: 0   1Mar2017            

=------------------------------------------------------------------------------=
   JOB DONE.
=------------------------------------------------------------------------------=
