# Thermal properties / unit cell (natom)

unit:
  temperature:   K
  free_energy:   kJ/mol
  entropy:       J/K/mol
  heat_capacity: J/K/mol

natom:     8
num_modes: 12288
num_integrated_modes: 12288

zero_point_energy:      52.4550531
high_T_entropy:        630.7111850

thermal_properties:
- temperature:         0.0000000
  free_energy:        52.4550531
  entropy:             0.0000000
  heat_capacity:       0.0000000
  energy:             52.4550531

- temperature:        10.0000000
  free_energy:        52.4550016
  entropy:             0.0261841
  heat_capacity:       0.0893744
  energy:             52.4552634

- temperature:        20.0000000
  free_energy:        52.4540376
  entropy:             0.1954929
  heat_capacity:       0.5278607
  energy:             52.4579475

- temperature:        30.0000000
  free_energy:        52.4503507
  entropy:             0.5877215
  heat_capacity:       1.6190683
  energy:             52.4679824

- temperature:        40.0000000
  free_energy:        52.4411553
  entropy:             1.3191317
  heat_capacity:       3.7840457
  energy:             52.4939205

- temperature:        50.0000000
  free_energy:        52.4223999
  entropy:             2.5194185
  heat_capacity:       7.3492230
  energy:             52.5483708

- temperature:        60.0000000
  free_energy:        52.3888952
  entropy:             4.2792471
  heat_capacity:      12.3320344
  energy:             52.6456500

- temperature:        70.0000000
  free_energy:        52.3348288
  entropy:             6.6335380
  heat_capacity:      18.5621873
  energy:             52.7991764

- temperature:        80.0000000
  free_energy:        52.2542650
  entropy:             9.5747445
  heat_capacity:      25.7966759
  energy:             53.0202446

- temperature:        90.0000000
  free_energy:        52.1414940
  entropy:            13.0673350
  heat_capacity:      33.7643762
  energy:             53.3175541

- temperature:       100.0000000
  free_energy:        51.9912567
  entropy:            17.0580809
  heat_capacity:      42.1926495
  energy:             53.6970648

- temperature:       110.0000000
  free_energy:        51.7988820
  entropy:            21.4838208
  heat_capacity:      50.8307851
  energy:             54.1621023

- temperature:       120.0000000
  free_energy:        51.5603536
  entropy:            26.2776111
  heat_capacity:      59.4663845
  energy:             54.7136669

- temperature:       130.0000000
  free_energy:        51.2723237
  entropy:            31.3733541
  heat_capacity:      67.9324300
  energy:             55.3508597

- temperature:       140.0000000
  free_energy:        50.9320877
  entropy:            36.7089344
  heat_capacity:      76.1067057
  energy:             56.0713385

- temperature:       150.0000000
  free_energy:        50.5375340
  entropy:            42.2280560
  heat_capacity:      83.9066165
  energy:             56.8717424

- temperature:       160.0000000
  free_energy:        50.0870810
  entropy:            47.8810761
  heat_capacity:      91.2820678
  energy:             57.7480532

- temperature:       170.0000000
  free_energy:        49.5796097
  entropy:            53.6251418
  heat_capacity:      98.2081577
  energy:             58.6958838

- temperature:       180.0000000
  free_energy:        49.0143966
  entropy:            59.4238862
  heat_capacity:     104.6786071
  energy:             59.7106961

- temperature:       190.0000000
  free_energy:        48.3910517
  entropy:            65.2468810
  heat_capacity:     110.7002978
  energy:             60.7879591

- temperature:       200.0000000
  free_energy:        47.7094625
  entropy:            71.0689778
  heat_capacity:     116.2889613
  energy:             61.9232580

- temperature:       210.0000000
  free_energy:        46.9697441
  entropy:            76.8696262
  heat_capacity:     121.4659056
  energy:             63.1123656

- temperature:       220.0000000
  free_energy:        46.1721972
  entropy:            82.6322182
  heat_capacity:     126.2556072
  energy:             64.3512852

- temperature:       230.0000000
  free_energy:        45.3172711
  entropy:            88.3434878
  heat_capacity:     130.6839899
  energy:             65.6362733

- temperature:       240.0000000
  free_energy:        44.4055336
  entropy:            93.9929762
  heat_capacity:     134.7772302
  energy:             66.9638479

- temperature:       250.0000000
  free_energy:        43.4376448
  entropy:            99.5725661
  heat_capacity:     138.5609570
  energy:             68.3307863

- temperature:       260.0000000
  free_energy:        42.4143360
  entropy:           105.0760820
  heat_capacity:     142.0597383
  energy:             69.7341174

- temperature:       270.0000000
  free_energy:        41.3363921
  entropy:           110.4989506
  heat_capacity:     145.2967758
  energy:             71.1711088

- temperature:       280.0000000
  free_energy:        40.2046368
  entropy:           115.8379143
  heat_capacity:     148.2937438
  energy:             72.6392528

- temperature:       290.0000000
  free_energy:        39.0199209
  entropy:           121.0907920
  heat_capacity:     151.0707291
  energy:             74.1362506

- temperature:       300.0000000
  free_energy:        37.7831124
  entropy:           126.2562787
  heat_capacity:     153.6462371
  energy:             75.6599960

- temperature:       310.0000000
  free_energy:        36.4950887
  entropy:           131.3337800
  heat_capacity:     156.0372429
  energy:             77.2085605

- temperature:       320.0000000
  free_energy:        35.1567302
  entropy:           136.3232736
  heat_capacity:     158.2592678
  energy:             78.7801777

- temperature:       330.0000000
  free_energy:        33.7689151
  entropy:           141.2251962
  heat_capacity:     160.3264713
  energy:             80.3732299

- temperature:       340.0000000
  free_energy:        32.3325155
  entropy:           146.0403491
  heat_capacity:     162.2517505
  energy:             81.9862342

- temperature:       350.0000000
  free_energy:        30.8483938
  entropy:           150.7698207
  heat_capacity:     164.0468397
  energy:             83.6178310

- temperature:       360.0000000
  free_energy:        29.3174003
  entropy:           155.4149232
  heat_capacity:     165.7224095
  energy:             85.2667727

- temperature:       370.0000000
  free_energy:        27.7403716
  entropy:           159.9771396
  heat_capacity:     167.2881601
  energy:             86.9319133

- temperature:       380.0000000
  free_energy:        26.1181285
  entropy:           164.4580812
  heat_capacity:     168.7529103
  energy:             88.6121993

- temperature:       390.0000000
  free_energy:        24.4514752
  entropy:           168.8594522
  heat_capacity:     170.1246788
  energy:             90.3066616

- temperature:       400.0000000
  free_energy:        22.7411988
  entropy:           173.1830214
  heat_capacity:     171.4107606
  energy:             92.0144074

- temperature:       410.0000000
  free_energy:        20.9880681
  entropy:           177.4305983
  heat_capacity:     172.6177954
  energy:             93.7346134

- temperature:       420.0000000
  free_energy:        19.1928340
  entropy:           181.6040142
  heat_capacity:     173.7518311
  energy:             95.4665200

- temperature:       430.0000000
  free_energy:        17.3562289
  entropy:           185.7051075
  heat_capacity:     174.8183804
  energy:             97.2094251

- temperature:       440.0000000
  free_energy:        15.4789668
  entropy:           189.7357105
  heat_capacity:     175.8224725
  energy:             98.9626795

- temperature:       450.0000000
  free_energy:        13.5617436
  entropy:           193.6976403
  heat_capacity:     176.7686996
  energy:            100.7256817

- temperature:       460.0000000
  free_energy:        11.6052370
  entropy:           197.5926905
  heat_capacity:     177.6612590
  energy:            102.4978746

- temperature:       470.0000000
  free_energy:         9.6101068
  entropy:           201.4226256
  heat_capacity:     178.5039905
  energy:            104.2787409

- temperature:       480.0000000
  free_energy:         7.5769957
  entropy:           205.1891757
  heat_capacity:     179.3004106
  energy:            106.0678001

- temperature:       490.0000000
  free_energy:         5.5065290
  entropy:           208.8940337
  heat_capacity:     180.0537429
  energy:            107.8646055

- temperature:       500.0000000
  free_energy:         3.3993152
  entropy:           212.5388520
  heat_capacity:     180.7669453
  energy:            109.6687412

- temperature:       510.0000000
  free_energy:         1.2559467
  entropy:           216.1252412
  heat_capacity:     181.4427352
  energy:            111.4798197

- temperature:       520.0000000
  free_energy:        -0.9230001
  entropy:           219.6547685
  heat_capacity:     182.0836112
  energy:            113.2974795

- temperature:       530.0000000
  free_energy:        -3.1369642
  entropy:           223.1289575
  heat_capacity:     182.6918732
  energy:            115.1213832

- temperature:       540.0000000
  free_energy:        -5.3853997
  entropy:           226.5492872
  heat_capacity:     183.2696405
  energy:            116.9512154

- temperature:       550.0000000
  free_energy:        -7.6677752
  entropy:           229.9171930
  heat_capacity:     183.8188679
  energy:            118.7866809

- temperature:       560.0000000
  free_energy:        -9.9835735
  entropy:           233.2340663
  heat_capacity:     184.3413602
  energy:            120.6275036

- temperature:       570.0000000
  free_energy:       -12.3322909
  entropy:           236.5012553
  heat_capacity:     184.8387854
  energy:            122.4734246

- temperature:       580.0000000
  free_energy:       -14.7134373
  entropy:           239.7200660
  heat_capacity:     185.3126866
  energy:            124.3242009

- temperature:       590.0000000
  free_energy:       -17.1265352
  entropy:           242.8917625
  heat_capacity:     185.7644930
  energy:            126.1796047

- temperature:       600.0000000
  free_energy:       -19.5711196
  entropy:           246.0175687
  heat_capacity:     186.1955292
  energy:            128.0394216

- temperature:       610.0000000
  free_energy:       -22.0467376
  entropy:           249.0986684
  heat_capacity:     186.6070241
  energy:            129.9034501

- temperature:       620.0000000
  free_energy:       -24.5529478
  entropy:           252.1362073
  heat_capacity:     187.0001190
  energy:            131.7715007

- temperature:       630.0000000
  free_energy:       -27.0893202
  entropy:           255.1312936
  heat_capacity:     187.3758749
  energy:            133.6433947

- temperature:       640.0000000
  free_energy:       -29.6554357
  entropy:           258.0849992
  heat_capacity:     187.7352787
  energy:            135.5189637

- temperature:       650.0000000
  free_energy:       -32.2508857
  entropy:           260.9983609
  heat_capacity:     188.0792494
  energy:            137.3980489

- temperature:       660.0000000
  free_energy:       -34.8752718
  entropy:           263.8723817
  heat_capacity:     188.4086438
  energy:            139.2805001

- temperature:       670.0000000
  free_energy:       -37.5282055
  entropy:           266.7080318
  heat_capacity:     188.7242606
  energy:            141.1661758

- temperature:       680.0000000
  free_energy:       -40.2093077
  entropy:           269.5062494
  heat_capacity:     189.0268459
  energy:            143.0549419

- temperature:       690.0000000
  free_energy:       -42.9182087
  entropy:           272.2679425
  heat_capacity:     189.3170965
  energy:            144.9466716

- temperature:       700.0000000
  free_energy:       -45.6545477
  entropy:           274.9939895
  heat_capacity:     189.5956642
  energy:            146.8412449

- temperature:       710.0000000
  free_energy:       -48.4179725
  entropy:           277.6852402
  heat_capacity:     189.8631587
  energy:            148.7385480

- temperature:       720.0000000
  free_energy:       -51.2081393
  entropy:           280.3425172
  heat_capacity:     190.1201513
  energy:            150.6384731

- temperature:       730.0000000
  free_energy:       -54.0247123
  entropy:           282.9666165
  heat_capacity:     190.3671773
  energy:            152.5409178

- temperature:       740.0000000
  free_energy:       -56.8673636
  entropy:           285.5583090
  heat_capacity:     190.6047388
  energy:            154.4457851

- temperature:       750.0000000
  free_energy:       -59.7357729
  entropy:           288.1183407
  heat_capacity:     190.8333071
  energy:            156.3529826

- temperature:       760.0000000
  free_energy:       -62.6296273
  entropy:           290.6474342
  heat_capacity:     191.0533251
  energy:            158.2624227

- temperature:       770.0000000
  free_energy:       -65.5486208
  entropy:           293.1462894
  heat_capacity:     191.2652087
  energy:            160.1740220

- temperature:       780.0000000
  free_energy:       -68.4924545
  entropy:           295.6155841
  heat_capacity:     191.4693495
  energy:            162.0877011

- temperature:       790.0000000
  free_energy:       -71.4608361
  entropy:           298.0559754
  heat_capacity:     191.6661160
  energy:            164.0033844

- temperature:       800.0000000
  free_energy:       -74.4534798
  entropy:           300.4680998
  heat_capacity:     191.8558552
  energy:            165.9210000

- temperature:       810.0000000
  free_energy:       -77.4701060
  entropy:           302.8525743
  heat_capacity:     192.0388943
  energy:            167.8404792

- temperature:       820.0000000
  free_energy:       -80.5104411
  entropy:           305.2099972
  heat_capacity:     192.2155417
  energy:            169.7617566

- temperature:       830.0000000
  free_energy:       -83.5742177
  entropy:           307.5409486
  heat_capacity:     192.3860886
  energy:            171.6847697

- temperature:       840.0000000
  free_energy:       -86.6611737
  entropy:           309.8459913
  heat_capacity:     192.5508099
  energy:            173.6094589

- temperature:       850.0000000
  free_energy:       -89.7710530
  entropy:           312.1256709
  heat_capacity:     192.7099655
  energy:            175.5357673

- temperature:       860.0000000
  free_energy:       -92.9036044
  entropy:           314.3805173
  heat_capacity:     192.8638008
  energy:            177.4636405

- temperature:       870.0000000
  free_energy:       -96.0585823
  entropy:           316.6110444
  heat_capacity:     193.0125483
  energy:            179.3930264

- temperature:       880.0000000
  free_energy:       -99.2357459
  entropy:           318.8177513
  heat_capacity:     193.1564277
  energy:            181.3238752

- temperature:       890.0000000
  free_energy:      -102.4348595
  entropy:           321.0011224
  heat_capacity:     193.2956475
  energy:            183.2561394

- temperature:       900.0000000
  free_energy:      -105.6556921
  entropy:           323.1616282
  heat_capacity:     193.4304049
  energy:            185.1897733

- temperature:       910.0000000
  free_energy:      -108.8980174
  entropy:           325.2997260
  heat_capacity:     193.5608870
  energy:            187.1247333

- temperature:       920.0000000
  free_energy:      -112.1616134
  entropy:           327.4158596
  heat_capacity:     193.6872713
  energy:            189.0609774

- temperature:       930.0000000
  free_energy:      -115.4462628
  entropy:           329.5104606
  heat_capacity:     193.8097262
  energy:            190.9984656

- temperature:       940.0000000
  free_energy:      -118.7517523
  entropy:           331.5839485
  heat_capacity:     193.9284117
  energy:            192.9371594

- temperature:       950.0000000
  free_energy:      -122.0778727
  entropy:           333.6367311
  heat_capacity:     194.0434797
  energy:            194.8770218

- temperature:       960.0000000
  free_energy:      -125.4244192
  entropy:           335.6692047
  heat_capacity:     194.1550747
  energy:            196.8180174

- temperature:       970.0000000
  free_energy:      -128.7911904
  entropy:           337.6817552
  heat_capacity:     194.2633340
  energy:            198.7601121

- temperature:       980.0000000
  free_energy:      -132.1779891
  entropy:           339.6747576
  heat_capacity:     194.3683882
  energy:            200.7032734

- temperature:       990.0000000
  free_energy:      -135.5846216
  entropy:           341.6485770
  heat_capacity:     194.4703618
  energy:            202.6474696

- temperature:      1000.0000000
  free_energy:      -139.0108979
  entropy:           343.6035686
  heat_capacity:     194.5693732
  energy:            204.5926707
